 Entering Gaussian System, Link 0=g16
 Input=ras-n-k1-scan1-ts1-irc-f-opt-scan1-ts1-irc-r-opt-scan1-ts1-irc-f-opt.com
 Output=ras-n-k1-scan1-ts1-irc-f-opt-scan1-ts1-irc-r-opt-scan1-ts1-irc-f-opt.log
 Initial command:
 /share/apps/g16/l1.exe "/state/partition1/Gau-8743.inp" -scrdir="/state/partition1/"
 Entering Link 1 = /share/apps/g16/l1.exe PID=      8744.
  
 Copyright (c) 1988-2017, Gaussian, Inc.  All Rights Reserved.
  
 This is part of the Gaussian(R) 16 program.  It is based on
 the Gaussian(R) 09 system (copyright 2009, Gaussian, Inc.),
 the Gaussian(R) 03 system (copyright 2003, Gaussian, Inc.),
 the Gaussian(R) 98 system (copyright 1998, Gaussian, Inc.),
 the Gaussian(R) 94 system (copyright 1995, Gaussian, Inc.),
 the Gaussian 92(TM) system (copyright 1992, Gaussian, Inc.),
 the Gaussian 90(TM) system (copyright 1990, Gaussian, Inc.),
 the Gaussian 88(TM) system (copyright 1988, Gaussian, Inc.),
 the Gaussian 86(TM) system (copyright 1986, Carnegie Mellon
 University), and the Gaussian 82(TM) system (copyright 1983,
 Carnegie Mellon University). Gaussian is a federally registered
 trademark of Gaussian, Inc.
  
 This software contains proprietary and confidential information,
 including trade secrets, belonging to Gaussian, Inc.
  
 This software is provided under written license and may be
 used, copied, transmitted, or stored only in accord with that
 written license.
  
 The following legend is applicable only to US Government
 contracts under FAR:
  
                    RESTRICTED RIGHTS LEGEND
  
 Use, reproduction and disclosure by the US Government is
 subject to restrictions as set forth in subparagraphs (a)
 and (c) of the Commercial Computer Software - Restricted
 Rights clause in FAR 52.227-19.
  
 Gaussian, Inc.
 340 Quinnipiac St., Bldg. 40, Wallingford CT 06492
  
  
 ---------------------------------------------------------------
 Warning -- This program may not be used in any manner that
 competes with the business of Gaussian, Inc. or will provide
 assistance to any competitor of Gaussian, Inc.  The licensee
 of this program is prohibited from giving any competitor of
 Gaussian, Inc. access to this program.  By using this program,
 the user acknowledges that Gaussian, Inc. is engaged in the
 business of creating and licensing software in the field of
 computational chemistry and represents and warrants to the
 licensee that it is not a competitor of Gaussian, Inc. and that
 it will not use this program in any manner prohibited above.
 ---------------------------------------------------------------
  

 Cite this work as:
 Gaussian 16, Revision B.01,
 M. J. Frisch, G. W. Trucks, H. B. Schlegel, G. E. Scuseria, 
 M. A. Robb, J. R. Cheeseman, G. Scalmani, V. Barone, 
 G. A. Petersson, H. Nakatsuji, X. Li, M. Caricato, A. V. Marenich, 
 J. Bloino, B. G. Janesko, R. Gomperts, B. Mennucci, H. P. Hratchian, 
 J. V. Ortiz, A. F. Izmaylov, J. L. Sonnenberg, D. Williams-Young, 
 F. Ding, F. Lipparini, F. Egidi, J. Goings, B. Peng, A. Petrone, 
 T. Henderson, D. Ranasinghe, V. G. Zakrzewski, J. Gao, N. Rega, 
 G. Zheng, W. Liang, M. Hada, M. Ehara, K. Toyota, R. Fukuda, 
 J. Hasegawa, M. Ishida, T. Nakajima, Y. Honda, O. Kitao, H. Nakai, 
 T. Vreven, K. Throssell, J. A. Montgomery, Jr., J. E. Peralta, 
 F. Ogliaro, M. J. Bearpark, J. J. Heyd, E. N. Brothers, K. N. Kudin, 
 V. N. Staroverov, T. A. Keith, R. Kobayashi, J. Normand, 
 K. Raghavachari, A. P. Rendell, J. C. Burant, S. S. Iyengar, 
 J. Tomasi, M. Cossi, J. M. Millam, M. Klene, C. Adamo, R. Cammi, 
 J. W. Ochterski, R. L. Martin, K. Morokuma, O. Farkas, 
 J. B. Foresman, and D. J. Fox, Gaussian, Inc., Wallingford CT, 2016.
 
 ******************************************
 Gaussian 16:  ES64L-G16RevB.01 20-Dec-2017
                 4-Apr-2022 
 ******************************************
 %mem=32GB
 %nproc=64
 Will use up to   64 processors via shared memory.
 ----------------------------------------------------------------------
 #p PBE1PBE/6-311++G(d,p) scrf=(CPCM,solvent=water,Read) scf=(XQC,Tight
 )
 ----------------------------------------------------------------------
 1/38=1,40=2,172=1/1;
 2/12=2,17=6,18=5,40=1/2;
 3/5=4,6=6,7=1111,11=2,25=1,30=1,70=2103,72=1,74=-13/1,2,3;
 4//1;
 5/5=2,8=3,13=1,32=2,38=5,53=1/2,8;
 6/7=2,8=2,9=2,10=2,28=1/1;
 99/5=1,9=1/99;
 Leave Link    1 at Mon Apr  4 10:45:11 2022, MaxMem=  4294967296 cpu:               3.8 elap:               0.1
 (Enter /share/apps/g16/l101.exe)
 ------------
 optimisation
 ------------
 Symbolic Z-matrix:
 Charge =  0 Multiplicity = 1
 6                    0    -0.04544  -0.29707   0.59379 
 6                    0     1.24648  -0.91259   0.88064 
 1                    0     1.88205  -1.04872   0.00468 
 6                    0    -0.24061   0.26228  -0.61992 
 1                    0     0.58157   0.33125  -1.33607 
 1                    0    -0.83633  -0.33344   1.338 
 7                    0    -1.42182   0.74391  -1.07144 
 1                    0    -2.24592   0.5855   -0.50149 
 6                    0    -1.54434   1.61931  -2.20644 
 6                    0    -2.96487   1.6706   -2.72476 
 6                    0    -3.91397   0.65247  -2.73536 
 6                    0    -3.27062   2.95456  -3.17891 
 6                    0    -5.19251   0.9389   -3.22487 
 1                    0    -3.66912  -0.3357   -2.3439 
 1                    0    -5.95165   0.16174  -3.2412 
 6                    0    -5.4967    2.21632  -3.70228 
 1                    0    -6.49306   2.42421  -4.08029 
 6                    0    -4.53664   3.23092  -3.68416 
 1                    0    -4.78769   4.22885  -4.03389 
 6                    0    -2.0918    3.88175  -2.97117 
 1                    0    -1.54643   4.02476  -3.91368 
 1                    0    -2.39441   4.87167  -2.61425 
 6                    0    -1.23562   3.11302  -1.94371 
 1                    0    -1.57742   3.34768  -0.9281 
 1                    0    -0.16627   3.33875  -2.00517 
 1                    0    -0.87441   1.24002  -2.99574 
 6                    0    -5.45185  -2.93965  -1.34145 
 6                    0    -5.02456  -4.16166  -0.52671 
 1                    0    -5.89076  -4.60009  -0.01318 
 1                    0    -4.57506  -4.93691  -1.15469 
 1                    0    -4.28998  -3.88083   0.23561 
 6                    0    -6.58192  -3.26752  -2.32383 
 1                    0    -7.46688  -3.58409  -1.75325 
 1                    0    -6.86934  -2.347    -2.85012 
 6                    0    -6.22098  -4.34025  -3.34947 
 1                    0    -7.01653  -4.46316  -4.09033 
 1                    0    -5.30207  -4.07285  -3.88337 
 1                    0    -6.05872  -5.31194  -2.87373 
 6                    0    -5.41313  -3.673     3.8859 
 6                    0    -4.70074  -2.68762   4.8105 
 1                    0    -5.24376  -1.73535   4.8262 
 1                    0    -4.70442  -3.06605   5.83761 
 6                    0    -3.24005  -2.439     4.39815 
 1                    0    -2.77558  -1.68266   5.03775 
 1                    0    -2.66345  -3.36273   4.49237 
 6                    0    -3.16779  -2.00049   2.95454 
 8                    0    -2.84444  -2.79107   2.0538 
 7                    0    -3.55617  -0.74294   2.69959 
 1                    0    -3.81838  -0.11898   3.44978 
 1                    0    -3.62574  -0.38561   1.74993 
 6                    0    -3.80827   7.04698   2.22482 
 6                    0    -2.76043   6.38423   1.32428 
 1                    0    -2.67925   6.94266   0.38356 
 1                    0    -1.77696   6.43098   1.80628 
 6                    0    -3.09748   4.94097   1.03443 
 6                    0    -4.06414   4.60404   0.08144 
 1                    0    -4.54717   5.39076  -0.49473 
 6                    0    -4.42259   3.27897  -0.14982 
 1                    0    -5.16301   3.0238   -0.90525 
 6                    0    -3.79432   2.26971   0.57456 
 8                    0    -4.07988   0.94025   0.36506 
 1                    0    -4.63553   0.8354   -0.42743 
 6                    0    -2.82003   2.57524   1.52069 
 1                    0    -2.30975   1.77637   2.05355 
 6                    0    -2.48464   3.90623   1.74734 
 1                    0    -1.7173    4.14024   2.48159 
 6                    0     0.36585   5.85546  -0.30844 
 6                    0     1.41832   4.88439   0.23449 
 1                    0     1.55432   4.07098  -0.48397 
 1                    0     2.38352   5.40289   0.30602 
 6                    0     1.05124   4.2977    1.57691 
 6                    0     0.88684   5.11453   2.70246 
 1                    0     1.04456   6.18761   2.61352 
 6                    0     0.53062   4.5692    3.9336 
 1                    0     0.41021   5.21733   4.79693 
 6                    0     0.33184   3.19281   4.06018 
 1                    0     0.05589   2.76912   5.02117 
 6                    0     0.49686   2.36662   2.94984 
 1                    0     0.36395   1.28944   3.03026 
 6                    0     0.85481   2.92223   1.72013 
 1                    0     0.98096   2.26758   0.85914 
 6                    0     6.52049   1.65098  -2.85874 
 6                    0     6.80133   1.685    -1.3621 
 1                    0     5.85965   1.66358  -0.8055 
 1                    0     7.34751   2.59186  -1.08462 
 16                   0     7.77957   0.2264   -0.87027 
 6                    0     7.50249   0.24802   0.94127 
 1                    0     7.89099   1.1829    1.3501 
 1                    0     8.13014  -0.56246   1.32247 
 6                    0     6.06052   0.02539   1.32457 
 6                    0     5.51746  -1.25176   1.13823 
 6                    0     4.18247  -1.52646   1.42717 
 1                    0     6.1652   -2.02619   0.7416 
 6                    0     5.26199   1.0589    1.83465 
 6                    0     5.79209   2.45058   2.08252 
 1                    0     6.5488    2.45533   2.87452 
 1                    0     6.25486   2.87938   1.18801 
 1                    0     4.98141   3.11513   2.3907 
 6                    0     3.92562   0.77134   2.12963 
 1                    0     3.26423   1.5464    2.50829 
 6                    0     3.38015  -0.48461   1.9192 
 7                    0     1.98045  -0.63813   2.11946 
 6                    0     1.4695   -1.98763   1.94159 
 6                    0     0.26852  -2.34668   2.75711 
 8                    0    -0.39128  -1.54019   3.38425 
 7                    0    -0.07873  -3.66514   2.63738 
 1                    0    -1.02854  -3.91534   2.90208 
 6                    0     0.66741  -4.65676   1.98182 
 8                    0     0.17205  -5.75699   1.83258 
 7                    0     1.95426  -4.35581   1.57938 
 6                    0     2.35999  -3.11997   1.59289 
 7                    0     3.63875  -2.82315   1.23937 
 6                    0     4.52876  -3.88714   0.78377 
 6                    0     4.83142  -2.06424  -2.6516 
 6                    0     3.35626  -1.80116  -2.33505 
 1                    0     2.71729  -2.38685  -3.00535 
 1                    0     3.13903  -2.1597   -1.31833 
 6                    0     2.99466  -0.34027  -2.45201 
 6                    0     3.43791   0.58539  -1.49863 
 1                    0     4.03198   0.23794  -0.65409 
 6                    0     3.14817   1.94075  -1.60822 
 1                    0     3.50085   2.65152  -0.86506 
 6                    0     2.41215   2.4009   -2.7033 
 8                    0     2.18164   3.74272  -2.79325 
 1                    0     1.66079   3.92821  -3.58966 
 6                    0     1.94735   1.49566  -3.65689 
 1                    0     1.3674    1.8527   -4.5052 
 6                    0     2.24137   0.13917  -3.52504 
 1                    0     1.8788   -0.55658  -4.27769 
 6                    0     2.62304  -5.31899  -2.10689 
 6                    0     1.44655  -4.98925  -3.03011 
 1                    0     1.81185  -4.45255  -3.91408 
 1                    0     1.01447  -5.92752  -3.402 
 6                    0     0.3689   -4.16394  -2.36036 
 6                    0    -0.14171  -3.00327  -2.94914 
 1                    0     0.24873  -2.68124  -3.91301 
 6                    0    -1.1415   -2.24888  -2.33946 
 1                    0    -1.51684  -1.33962  -2.79965 
 6                    0    -1.64988  -2.64254  -1.09939 
 8                    0    -2.60187  -1.87955  -0.50172 
 1                    0    -2.7432   -2.2212    0.41524 
 6                    0    -1.16886  -3.8148   -0.50624 
 1                    0    -1.58221  -4.14426   0.44282 
 6                    0    -0.17181  -4.55551  -1.13237 
 1                    0     0.18256  -5.45841  -0.64206 
 1                    0     5.95324   2.5404   -3.14877 
 1                    0     5.92623   0.76992  -3.11944 
 1                    0     7.44825   1.63161  -3.43848 
 1                    0     4.96312  -3.6092   -0.18103 
 1                    0     3.94547  -4.79698   0.67705 
 1                    0     5.33078  -4.04421   1.51072 
 1                    0    -0.61828   5.37564  -0.34538 
 1                    0     0.63007   6.18109  -1.31984 
 1                    0     0.27882   6.74575   0.32328 
 1                    0    -3.8817    6.51893   3.18065 
 1                    0    -4.79571   7.02342   1.75275 
 1                    0    -3.55149   8.09084   2.42771 
 6                    0    -5.86983  -1.80865  -0.40317 
 1                    0    -4.58203  -2.59897  -1.92072 
 1                    0    -6.7356   -2.10725   0.20155 
 1                    0    -6.15438  -0.9074   -0.96228 
 1                    0    -5.05476  -1.5508    0.28155 
 1                    0     2.29976  -5.90438  -1.24058 
 1                    0     3.08267  -4.40206  -1.72507 
 1                    0     3.3888   -5.89353  -2.63701 
 1                    0    -6.42027  -3.89138   4.25063 
 1                    0    -4.86054  -4.61612   3.82061 
 1                    0    -5.50249  -3.27206   2.87025 
 1                    0     5.48291  -1.53078  -1.94891 
 1                    0     5.0758   -1.72127  -3.66246 
 1                    0     5.06203  -3.13376  -2.59265 
 
 ITRead=  0  0  0  0  0  0  0  0  0  0  0  0  0  0  0  0  0  0  0  0
 ITRead=  0  0  0  0  0  0  0  0  0  0  0  0  0  0  0  0  0  0  0  0
 ITRead=  0  0  0  0  0  0  0  0  0  0  0  0  0  0  0  0  0  0  0  0
 ITRead=  0  0  0  0  0  0  0  0  0  0  0  0  0  0  0  0  0  0  0  0
 ITRead=  0  0  0  0  0  0  0  0  0  0  0  0  0  0  0  0  0  0  0  0
 ITRead=  0  0  0  0  0  0  0  0  0  0  0  0  0  0  0  0  0  0  0  0
 ITRead=  0  0  0  0  0  0  0  0  0  0  0  0  0  0  0  0  0  0  0  0
 ITRead=  0  0  0  0  0  0  0  0  0  0  0  0  0  0  0  0  0  0  0  0
 ITRead=  0  0  0  0  0  0  0  0  0  0  0
 MicOpt= -1 -1 -1 -1 -1 -1 -1 -1 -1 -1 -1 -1 -1 -1 -1 -1 -1 -1 -1 -1
 MicOpt= -1 -1 -1 -1 -1 -1 -1 -1 -1 -1 -1 -1 -1 -1 -1 -1 -1 -1 -1 -1
 MicOpt= -1 -1 -1 -1 -1 -1 -1 -1 -1 -1 -1 -1 -1 -1 -1 -1 -1 -1 -1 -1
 MicOpt= -1 -1 -1 -1 -1 -1 -1 -1 -1 -1 -1 -1 -1 -1 -1 -1 -1 -1 -1 -1
 MicOpt= -1 -1 -1 -1 -1 -1 -1 -1 -1 -1 -1 -1 -1 -1 -1 -1 -1 -1 -1 -1
 MicOpt= -1 -1 -1 -1 -1 -1 -1 -1 -1 -1 -1 -1 -1 -1 -1 -1 -1 -1 -1 -1
 MicOpt= -1 -1 -1 -1 -1 -1 -1 -1 -1 -1 -1 -1 -1 -1 -1 -1 -1 -1 -1 -1
 MicOpt= -1 -1 -1 -1 -1 -1 -1 -1 -1 -1 -1 -1 -1 -1 -1 -1 -1 -1 -1 -1
 MicOpt= -1 -1 -1 -1 -1 -1 -1 -1 -1 -1 -1
 NAtoms=    171 NQM=      171 NQMF=       0 NMMI=      0 NMMIF=      0
                NMic=       0 NMicF=      0.
                    Isotopes and Nuclear Properties:
 (Nuclear quadrupole moments (NQMom) in fm**2, nuclear magnetic moments (NMagM)
  in nuclear magnetons)

  Atom         1           2           3           4           5           6           7           8           9          10
 IAtWgt=          12          12           1          12           1           1          14           1          12          12
 AtmWgt=  12.0000000  12.0000000   1.0078250  12.0000000   1.0078250   1.0078250  14.0030740   1.0078250  12.0000000  12.0000000
 NucSpn=           0           0           1           0           1           1           2           1           0           0
 AtZEff=  -0.0000000  -0.0000000  -0.0000000  -0.0000000  -0.0000000  -0.0000000  -0.0000000  -0.0000000  -0.0000000  -0.0000000
 NQMom=    0.0000000   0.0000000   0.0000000   0.0000000   0.0000000   0.0000000   2.0440000   0.0000000   0.0000000   0.0000000
 NMagM=    0.0000000   0.0000000   2.7928460   0.0000000   2.7928460   2.7928460   0.4037610   2.7928460   0.0000000   0.0000000
 AtZNuc=   6.0000000   6.0000000   1.0000000   6.0000000   1.0000000   1.0000000   7.0000000   1.0000000   6.0000000   6.0000000

  Atom        11          12          13          14          15          16          17          18          19          20
 IAtWgt=          12          12          12           1           1          12           1          12           1          12
 AtmWgt=  12.0000000  12.0000000  12.0000000   1.0078250   1.0078250  12.0000000   1.0078250  12.0000000   1.0078250  12.0000000
 NucSpn=           0           0           0           1           1           0           1           0           1           0
 AtZEff=  -0.0000000  -0.0000000  -0.0000000  -0.0000000  -0.0000000  -0.0000000  -0.0000000  -0.0000000  -0.0000000  -0.0000000
 NQMom=    0.0000000   0.0000000   0.0000000   0.0000000   0.0000000   0.0000000   0.0000000   0.0000000   0.0000000   0.0000000
 NMagM=    0.0000000   0.0000000   0.0000000   2.7928460   2.7928460   0.0000000   2.7928460   0.0000000   2.7928460   0.0000000
 AtZNuc=   6.0000000   6.0000000   6.0000000   1.0000000   1.0000000   6.0000000   1.0000000   6.0000000   1.0000000   6.0000000

  Atom        21          22          23          24          25          26          27          28          29          30
 IAtWgt=           1           1          12           1           1           1          12          12           1           1
 AtmWgt=   1.0078250   1.0078250  12.0000000   1.0078250   1.0078250   1.0078250  12.0000000  12.0000000   1.0078250   1.0078250
 NucSpn=           1           1           0           1           1           1           0           0           1           1
 AtZEff=  -0.0000000  -0.0000000  -0.0000000  -0.0000000  -0.0000000  -0.0000000  -0.0000000  -0.0000000  -0.0000000  -0.0000000
 NQMom=    0.0000000   0.0000000   0.0000000   0.0000000   0.0000000   0.0000000   0.0000000   0.0000000   0.0000000   0.0000000
 NMagM=    2.7928460   2.7928460   0.0000000   2.7928460   2.7928460   2.7928460   0.0000000   0.0000000   2.7928460   2.7928460
 AtZNuc=   1.0000000   1.0000000   6.0000000   1.0000000   1.0000000   1.0000000   6.0000000   6.0000000   1.0000000   1.0000000

  Atom        31          32          33          34          35          36          37          38          39          40
 IAtWgt=           1          12           1           1          12           1           1           1          12          12
 AtmWgt=   1.0078250  12.0000000   1.0078250   1.0078250  12.0000000   1.0078250   1.0078250   1.0078250  12.0000000  12.0000000
 NucSpn=           1           0           1           1           0           1           1           1           0           0
 AtZEff=  -0.0000000  -0.0000000  -0.0000000  -0.0000000  -0.0000000  -0.0000000  -0.0000000  -0.0000000  -0.0000000  -0.0000000
 NQMom=    0.0000000   0.0000000   0.0000000   0.0000000   0.0000000   0.0000000   0.0000000   0.0000000   0.0000000   0.0000000
 NMagM=    2.7928460   0.0000000   2.7928460   2.7928460   0.0000000   2.7928460   2.7928460   2.7928460   0.0000000   0.0000000
 AtZNuc=   1.0000000   6.0000000   1.0000000   1.0000000   6.0000000   1.0000000   1.0000000   1.0000000   6.0000000   6.0000000

  Atom        41          42          43          44          45          46          47          48          49          50
 IAtWgt=           1           1          12           1           1          12          16          14           1           1
 AtmWgt=   1.0078250   1.0078250  12.0000000   1.0078250   1.0078250  12.0000000  15.9949146  14.0030740   1.0078250   1.0078250
 NucSpn=           1           1           0           1           1           0           0           2           1           1
 AtZEff=  -0.0000000  -0.0000000  -0.0000000  -0.0000000  -0.0000000  -0.0000000  -0.0000000  -0.0000000  -0.0000000  -0.0000000
 NQMom=    0.0000000   0.0000000   0.0000000   0.0000000   0.0000000   0.0000000   0.0000000   2.0440000   0.0000000   0.0000000
 NMagM=    2.7928460   2.7928460   0.0000000   2.7928460   2.7928460   0.0000000   0.0000000   0.4037610   2.7928460   2.7928460
 AtZNuc=   1.0000000   1.0000000   6.0000000   1.0000000   1.0000000   6.0000000   8.0000000   7.0000000   1.0000000   1.0000000

  Atom        51          52          53          54          55          56          57          58          59          60
 IAtWgt=          12          12           1           1          12          12           1          12           1          12
 AtmWgt=  12.0000000  12.0000000   1.0078250   1.0078250  12.0000000  12.0000000   1.0078250  12.0000000   1.0078250  12.0000000
 NucSpn=           0           0           1           1           0           0           1           0           1           0
 AtZEff=  -0.0000000  -0.0000000  -0.0000000  -0.0000000  -0.0000000  -0.0000000  -0.0000000  -0.0000000  -0.0000000  -0.0000000
 NQMom=    0.0000000   0.0000000   0.0000000   0.0000000   0.0000000   0.0000000   0.0000000   0.0000000   0.0000000   0.0000000
 NMagM=    0.0000000   0.0000000   2.7928460   2.7928460   0.0000000   0.0000000   2.7928460   0.0000000   2.7928460   0.0000000
 AtZNuc=   6.0000000   6.0000000   1.0000000   1.0000000   6.0000000   6.0000000   1.0000000   6.0000000   1.0000000   6.0000000

  Atom        61          62          63          64          65          66          67          68          69          70
 IAtWgt=          16           1          12           1          12           1          12          12           1           1
 AtmWgt=  15.9949146   1.0078250  12.0000000   1.0078250  12.0000000   1.0078250  12.0000000  12.0000000   1.0078250   1.0078250
 NucSpn=           0           1           0           1           0           1           0           0           1           1
 AtZEff=  -0.0000000  -0.0000000  -0.0000000  -0.0000000  -0.0000000  -0.0000000  -0.0000000  -0.0000000  -0.0000000  -0.0000000
 NQMom=    0.0000000   0.0000000   0.0000000   0.0000000   0.0000000   0.0000000   0.0000000   0.0000000   0.0000000   0.0000000
 NMagM=    0.0000000   2.7928460   0.0000000   2.7928460   0.0000000   2.7928460   0.0000000   0.0000000   2.7928460   2.7928460
 AtZNuc=   8.0000000   1.0000000   6.0000000   1.0000000   6.0000000   1.0000000   6.0000000   6.0000000   1.0000000   1.0000000

  Atom        71          72          73          74          75          76          77          78          79          80
 IAtWgt=          12          12           1          12           1          12           1          12           1          12
 AtmWgt=  12.0000000  12.0000000   1.0078250  12.0000000   1.0078250  12.0000000   1.0078250  12.0000000   1.0078250  12.0000000
 NucSpn=           0           0           1           0           1           0           1           0           1           0
 AtZEff=  -0.0000000  -0.0000000  -0.0000000  -0.0000000  -0.0000000  -0.0000000  -0.0000000  -0.0000000  -0.0000000  -0.0000000
 NQMom=    0.0000000   0.0000000   0.0000000   0.0000000   0.0000000   0.0000000   0.0000000   0.0000000   0.0000000   0.0000000
 NMagM=    0.0000000   0.0000000   2.7928460   0.0000000   2.7928460   0.0000000   2.7928460   0.0000000   2.7928460   0.0000000
 AtZNuc=   6.0000000   6.0000000   1.0000000   6.0000000   1.0000000   6.0000000   1.0000000   6.0000000   1.0000000   6.0000000

  Atom        81          82          83          84          85          86          87          88          89          90
 IAtWgt=           1          12          12           1           1          32          12           1           1          12
 AtmWgt=   1.0078250  12.0000000  12.0000000   1.0078250   1.0078250  31.9720718  12.0000000   1.0078250   1.0078250  12.0000000
 NucSpn=           1           0           0           1           1           0           0           1           1           0
 AtZEff=  -0.0000000  -0.0000000  -0.0000000  -0.0000000  -0.0000000  -0.0000000  -0.0000000  -0.0000000  -0.0000000  -0.0000000
 NQMom=    0.0000000   0.0000000   0.0000000   0.0000000   0.0000000   0.0000000   0.0000000   0.0000000   0.0000000   0.0000000
 NMagM=    2.7928460   0.0000000   0.0000000   2.7928460   2.7928460   0.0000000   0.0000000   2.7928460   2.7928460   0.0000000
 AtZNuc=   1.0000000   6.0000000   6.0000000   1.0000000   1.0000000  16.0000000   6.0000000   1.0000000   1.0000000   6.0000000

  Atom        91          92          93          94          95          96          97          98          99         100
 IAtWgt=          12          12           1          12          12           1           1           1          12           1
 AtmWgt=  12.0000000  12.0000000   1.0078250  12.0000000  12.0000000   1.0078250   1.0078250   1.0078250  12.0000000   1.0078250
 NucSpn=           0           0           1           0           0           1           1           1           0           1
 AtZEff=  -0.0000000  -0.0000000  -0.0000000  -0.0000000  -0.0000000  -0.0000000  -0.0000000  -0.0000000  -0.0000000  -0.0000000
 NQMom=    0.0000000   0.0000000   0.0000000   0.0000000   0.0000000   0.0000000   0.0000000   0.0000000   0.0000000   0.0000000
 NMagM=    0.0000000   0.0000000   2.7928460   0.0000000   0.0000000   2.7928460   2.7928460   2.7928460   0.0000000   2.7928460
 AtZNuc=   6.0000000   6.0000000   1.0000000   6.0000000   6.0000000   1.0000000   1.0000000   1.0000000   6.0000000   1.0000000

  Atom       101         102         103         104         105         106         107         108         109         110
 IAtWgt=          12          14          12          12          16          14           1          12          16          14
 AtmWgt=  12.0000000  14.0030740  12.0000000  12.0000000  15.9949146  14.0030740   1.0078250  12.0000000  15.9949146  14.0030740
 NucSpn=           0           2           0           0           0           2           1           0           0           2
 AtZEff=  -0.0000000  -0.0000000  -0.0000000  -0.0000000  -0.0000000  -0.0000000  -0.0000000  -0.0000000  -0.0000000  -0.0000000
 NQMom=    0.0000000   2.0440000   0.0000000   0.0000000   0.0000000   2.0440000   0.0000000   0.0000000   0.0000000   2.0440000
 NMagM=    0.0000000   0.4037610   0.0000000   0.0000000   0.0000000   0.4037610   2.7928460   0.0000000   0.0000000   0.4037610
 AtZNuc=   6.0000000   7.0000000   6.0000000   6.0000000   8.0000000   7.0000000   1.0000000   6.0000000   8.0000000   7.0000000

  Atom       111         112         113         114         115         116         117         118         119         120
 IAtWgt=          12          14          12          12          12           1           1          12          12           1
 AtmWgt=  12.0000000  14.0030740  12.0000000  12.0000000  12.0000000   1.0078250   1.0078250  12.0000000  12.0000000   1.0078250
 NucSpn=           0           2           0           0           0           1           1           0           0           1
 AtZEff=  -0.0000000  -0.0000000  -0.0000000  -0.0000000  -0.0000000  -0.0000000  -0.0000000  -0.0000000  -0.0000000  -0.0000000
 NQMom=    0.0000000   2.0440000   0.0000000   0.0000000   0.0000000   0.0000000   0.0000000   0.0000000   0.0000000   0.0000000
 NMagM=    0.0000000   0.4037610   0.0000000   0.0000000   0.0000000   2.7928460   2.7928460   0.0000000   0.0000000   2.7928460
 AtZNuc=   6.0000000   7.0000000   6.0000000   6.0000000   6.0000000   1.0000000   1.0000000   6.0000000   6.0000000   1.0000000

  Atom       121         122         123         124         125         126         127         128         129         130
 IAtWgt=          12           1          12          16           1          12           1          12           1          12
 AtmWgt=  12.0000000   1.0078250  12.0000000  15.9949146   1.0078250  12.0000000   1.0078250  12.0000000   1.0078250  12.0000000
 NucSpn=           0           1           0           0           1           0           1           0           1           0
 AtZEff=  -0.0000000  -0.0000000  -0.0000000  -0.0000000  -0.0000000  -0.0000000  -0.0000000  -0.0000000  -0.0000000  -0.0000000
 NQMom=    0.0000000   0.0000000   0.0000000   0.0000000   0.0000000   0.0000000   0.0000000   0.0000000   0.0000000   0.0000000
 NMagM=    0.0000000   2.7928460   0.0000000   0.0000000   2.7928460   0.0000000   2.7928460   0.0000000   2.7928460   0.0000000
 AtZNuc=   6.0000000   1.0000000   6.0000000   8.0000000   1.0000000   6.0000000   1.0000000   6.0000000   1.0000000   6.0000000

  Atom       131         132         133         134         135         136         137         138         139         140
 IAtWgt=          12           1           1          12          12           1          12           1          12          16
 AtmWgt=  12.0000000   1.0078250   1.0078250  12.0000000  12.0000000   1.0078250  12.0000000   1.0078250  12.0000000  15.9949146
 NucSpn=           0           1           1           0           0           1           0           1           0           0
 AtZEff=  -0.0000000  -0.0000000  -0.0000000  -0.0000000  -0.0000000  -0.0000000  -0.0000000  -0.0000000  -0.0000000  -0.0000000
 NQMom=    0.0000000   0.0000000   0.0000000   0.0000000   0.0000000   0.0000000   0.0000000   0.0000000   0.0000000   0.0000000
 NMagM=    0.0000000   2.7928460   2.7928460   0.0000000   0.0000000   2.7928460   0.0000000   2.7928460   0.0000000   0.0000000
 AtZNuc=   6.0000000   1.0000000   1.0000000   6.0000000   6.0000000   1.0000000   6.0000000   1.0000000   6.0000000   8.0000000

  Atom       141         142         143         144         145         146         147         148         149         150
 IAtWgt=           1          12           1          12           1           1           1           1           1           1
 AtmWgt=   1.0078250  12.0000000   1.0078250  12.0000000   1.0078250   1.0078250   1.0078250   1.0078250   1.0078250   1.0078250
 NucSpn=           1           0           1           0           1           1           1           1           1           1
 AtZEff=  -0.0000000  -0.0000000  -0.0000000  -0.0000000  -0.0000000  -0.0000000  -0.0000000  -0.0000000  -0.0000000  -0.0000000
 NQMom=    0.0000000   0.0000000   0.0000000   0.0000000   0.0000000   0.0000000   0.0000000   0.0000000   0.0000000   0.0000000
 NMagM=    2.7928460   0.0000000   2.7928460   0.0000000   2.7928460   2.7928460   2.7928460   2.7928460   2.7928460   2.7928460
 AtZNuc=   1.0000000   6.0000000   1.0000000   6.0000000   1.0000000   1.0000000   1.0000000   1.0000000   1.0000000   1.0000000

  Atom       151         152         153         154         155         156         157         158         159         160
 IAtWgt=           1           1           1           1           1           1           1          12           1           1
 AtmWgt=   1.0078250   1.0078250   1.0078250   1.0078250   1.0078250   1.0078250   1.0078250  12.0000000   1.0078250   1.0078250
 NucSpn=           1           1           1           1           1           1           1           0           1           1
 AtZEff=  -0.0000000  -0.0000000  -0.0000000  -0.0000000  -0.0000000  -0.0000000  -0.0000000  -0.0000000  -0.0000000  -0.0000000
 NQMom=    0.0000000   0.0000000   0.0000000   0.0000000   0.0000000   0.0000000   0.0000000   0.0000000   0.0000000   0.0000000
 NMagM=    2.7928460   2.7928460   2.7928460   2.7928460   2.7928460   2.7928460   2.7928460   0.0000000   2.7928460   2.7928460
 AtZNuc=   1.0000000   1.0000000   1.0000000   1.0000000   1.0000000   1.0000000   1.0000000   6.0000000   1.0000000   1.0000000

  Atom       161         162         163         164         165         166         167         168         169         170
 IAtWgt=           1           1           1           1           1           1           1           1           1           1
 AtmWgt=   1.0078250   1.0078250   1.0078250   1.0078250   1.0078250   1.0078250   1.0078250   1.0078250   1.0078250   1.0078250
 NucSpn=           1           1           1           1           1           1           1           1           1           1
 AtZEff=  -0.0000000  -0.0000000  -0.0000000  -0.0000000  -0.0000000  -0.0000000  -0.0000000  -0.0000000  -0.0000000  -0.0000000
 NQMom=    0.0000000   0.0000000   0.0000000   0.0000000   0.0000000   0.0000000   0.0000000   0.0000000   0.0000000   0.0000000
 NMagM=    2.7928460   2.7928460   2.7928460   2.7928460   2.7928460   2.7928460   2.7928460   2.7928460   2.7928460   2.7928460
 AtZNuc=   1.0000000   1.0000000   1.0000000   1.0000000   1.0000000   1.0000000   1.0000000   1.0000000   1.0000000   1.0000000

  Atom       171
 IAtWgt=           1
 AtmWgt=   1.0078250
 NucSpn=           1
 AtZEff=  -0.0000000
 NQMom=    0.0000000
 NMagM=    2.7928460
 AtZNuc=   1.0000000
 Leave Link  101 at Mon Apr  4 10:45:11 2022, MaxMem=  4294967296 cpu:               8.5 elap:               0.2
 (Enter /share/apps/g16/l202.exe)
 Stoichiometry    C68H90N6O6S
 Framework group  C1[X(C68H90N6O6S)]
 Deg. of freedom   507
 Full point group                 C1      NOp   1
 Largest Abelian subgroup         C1      NOp   1
 Largest concise Abelian subgroup C1      NOp   1
                         Standard orientation:                         
 ---------------------------------------------------------------------
 Center     Atomic      Atomic             Coordinates (Angstroms)
 Number     Number       Type             X           Y           Z
 ---------------------------------------------------------------------
      1          6           0       -0.045435   -0.297065    0.593792
      2          6           0        1.246482   -0.912587    0.880640
      3          1           0        1.882050   -1.048719    0.004677
      4          6           0       -0.240614    0.262278   -0.619915
      5          1           0        0.581571    0.331249   -1.336068
      6          1           0       -0.836331   -0.333440    1.338002
      7          7           0       -1.421823    0.743906   -1.071436
      8          1           0       -2.245917    0.585497   -0.501490
      9          6           0       -1.544342    1.619306   -2.206443
     10          6           0       -2.964867    1.670599   -2.724762
     11          6           0       -3.913974    0.652467   -2.735364
     12          6           0       -3.270620    2.954557   -3.178909
     13          6           0       -5.192510    0.938897   -3.224870
     14          1           0       -3.669117   -0.335700   -2.343901
     15          1           0       -5.951647    0.161737   -3.241203
     16          6           0       -5.496703    2.216322   -3.702284
     17          1           0       -6.493058    2.424211   -4.080286
     18          6           0       -4.536636    3.230921   -3.684161
     19          1           0       -4.787691    4.228848   -4.033889
     20          6           0       -2.091802    3.881745   -2.971171
     21          1           0       -1.546429    4.024760   -3.913684
     22          1           0       -2.394407    4.871670   -2.614247
     23          6           0       -1.235621    3.113018   -1.943713
     24          1           0       -1.577421    3.347683   -0.928097
     25          1           0       -0.166274    3.338750   -2.005175
     26          1           0       -0.874408    1.240017   -2.995737
     27          6           0       -5.451847   -2.939650   -1.341452
     28          6           0       -5.024558   -4.161660   -0.526709
     29          1           0       -5.890763   -4.600086   -0.013184
     30          1           0       -4.575060   -4.936912   -1.154686
     31          1           0       -4.289981   -3.880828    0.235607
     32          6           0       -6.581916   -3.267520   -2.323830
     33          1           0       -7.466881   -3.584094   -1.753245
     34          1           0       -6.869344   -2.347002   -2.850115
     35          6           0       -6.220985   -4.340251   -3.349471
     36          1           0       -7.016534   -4.463164   -4.090332
     37          1           0       -5.302067   -4.072845   -3.883367
     38          1           0       -6.058715   -5.311939   -2.873726
     39          6           0       -5.413127   -3.673002    3.885900
     40          6           0       -4.700744   -2.687619    4.810501
     41          1           0       -5.243758   -1.735345    4.826195
     42          1           0       -4.704424   -3.066051    5.837611
     43          6           0       -3.240045   -2.439000    4.398147
     44          1           0       -2.775577   -1.682658    5.037745
     45          1           0       -2.663449   -3.362728    4.492365
     46          6           0       -3.167787   -2.000487    2.954542
     47          8           0       -2.844442   -2.791068    2.053802
     48          7           0       -3.556170   -0.742938    2.699586
     49          1           0       -3.818379   -0.118981    3.449778
     50          1           0       -3.625744   -0.385611    1.749931
     51          6           0       -3.808270    7.046980    2.224823
     52          6           0       -2.760426    6.384229    1.324275
     53          1           0       -2.679247    6.942656    0.383558
     54          1           0       -1.776955    6.430976    1.806278
     55          6           0       -3.097478    4.940969    1.034429
     56          6           0       -4.064140    4.604040    0.081444
     57          1           0       -4.547172    5.390758   -0.494734
     58          6           0       -4.422593    3.278972   -0.149821
     59          1           0       -5.163012    3.023804   -0.905253
     60          6           0       -3.794316    2.269705    0.574557
     61          8           0       -4.079877    0.940245    0.365061
     62          1           0       -4.635535    0.835398   -0.427430
     63          6           0       -2.820026    2.575244    1.520689
     64          1           0       -2.309751    1.776372    2.053549
     65          6           0       -2.484639    3.906234    1.747340
     66          1           0       -1.717297    4.140244    2.481593
     67          6           0        0.365849    5.855463   -0.308440
     68          6           0        1.418318    4.884391    0.234492
     69          1           0        1.554316    4.070980   -0.483968
     70          1           0        2.383520    5.402893    0.306017
     71          6           0        1.051242    4.297701    1.576907
     72          6           0        0.886837    5.114525    2.702456
     73          1           0        1.044562    6.187605    2.613515
     74          6           0        0.530617    4.569198    3.933595
     75          1           0        0.410214    5.217334    4.796931
     76          6           0        0.331839    3.192813    4.060177
     77          1           0        0.055887    2.769118    5.021170
     78          6           0        0.496856    2.366622    2.949844
     79          1           0        0.363948    1.289440    3.030258
     80          6           0        0.854807    2.922230    1.720134
     81          1           0        0.980956    2.267579    0.859136
     82          6           0        6.520488    1.650984   -2.858743
     83          6           0        6.801332    1.685002   -1.362099
     84          1           0        5.859651    1.663578   -0.805502
     85          1           0        7.347506    2.591856   -1.084617
     86         16           0        7.779569    0.226400   -0.870268
     87          6           0        7.502487    0.248017    0.941269
     88          1           0        7.890988    1.182903    1.350097
     89          1           0        8.130141   -0.562463    1.322470
     90          6           0        6.060524    0.025391    1.324572
     91          6           0        5.517460   -1.251762    1.138227
     92          6           0        4.182466   -1.526458    1.427173
     93          1           0        6.165204   -2.026189    0.741597
     94          6           0        5.261995    1.058897    1.834653
     95          6           0        5.792089    2.450579    2.082522
     96          1           0        6.548803    2.455327    2.874524
     97          1           0        6.254858    2.879377    1.188007
     98          1           0        4.981405    3.115126    2.390701
     99          6           0        3.925621    0.771344    2.129630
    100          1           0        3.264227    1.546400    2.508285
    101          6           0        3.380154   -0.484611    1.919196
    102          7           0        1.980451   -0.638127    2.119462
    103          6           0        1.469495   -1.987633    1.941587
    104          6           0        0.268520   -2.346678    2.757109
    105          8           0       -0.391283   -1.540194    3.384248
    106          7           0       -0.078727   -3.665143    2.637382
    107          1           0       -1.028537   -3.915339    2.902077
    108          6           0        0.667414   -4.656757    1.981823
    109          8           0        0.172052   -5.756985    1.832575
    110          7           0        1.954256   -4.355809    1.579381
    111          6           0        2.359990   -3.119967    1.592893
    112          7           0        3.638749   -2.823154    1.239369
    113          6           0        4.528763   -3.887141    0.783765
    114          6           0        4.831424   -2.064242   -2.651600
    115          6           0        3.356260   -1.801155   -2.335053
    116          1           0        2.717294   -2.386845   -3.005350
    117          1           0        3.139034   -2.159698   -1.318325
    118          6           0        2.994661   -0.340267   -2.452005
    119          6           0        3.437909    0.585393   -1.498627
    120          1           0        4.031984    0.237943   -0.654094
    121          6           0        3.148173    1.940751   -1.608218
    122          1           0        3.500850    2.651519   -0.865060
    123          6           0        2.412151    2.400902   -2.703295
    124          8           0        2.181637    3.742721   -2.793247
    125          1           0        1.660786    3.928211   -3.589660
    126          6           0        1.947345    1.495657   -3.656887
    127          1           0        1.367395    1.852701   -4.505203
    128          6           0        2.241367    0.139165   -3.525038
    129          1           0        1.878803   -0.556577   -4.277689
    130          6           0        2.623041   -5.318992   -2.106886
    131          6           0        1.446546   -4.989246   -3.030112
    132          1           0        1.811851   -4.452546   -3.914079
    133          1           0        1.014467   -5.927517   -3.402004
    134          6           0        0.368900   -4.163940   -2.360362
    135          6           0       -0.141705   -3.003268   -2.949138
    136          1           0        0.248725   -2.681236   -3.913008
    137          6           0       -1.141505   -2.248876   -2.339457
    138          1           0       -1.516839   -1.339616   -2.799648
    139          6           0       -1.649875   -2.642537   -1.099389
    140          8           0       -2.601870   -1.879551   -0.501724
    141          1           0       -2.743204   -2.221200    0.415236
    142          6           0       -1.168860   -3.814797   -0.506235
    143          1           0       -1.582214   -4.144255    0.442818
    144          6           0       -0.171810   -4.555507   -1.132374
    145          1           0        0.182563   -5.458413   -0.642056
    146          1           0        5.953238    2.540397   -3.148767
    147          1           0        5.926229    0.769922   -3.119437
    148          1           0        7.448245    1.631609   -3.438475
    149          1           0        4.963124   -3.609196   -0.181031
    150          1           0        3.945465   -4.796978    0.677052
    151          1           0        5.330778   -4.044208    1.510717
    152          1           0       -0.618280    5.375640   -0.345379
    153          1           0        0.630065    6.181091   -1.319844
    154          1           0        0.278824    6.745753    0.323279
    155          1           0       -3.881704    6.518926    3.180648
    156          1           0       -4.795711    7.023416    1.752749
    157          1           0       -3.551486    8.090840    2.427705
    158          6           0       -5.869833   -1.808648   -0.403165
    159          1           0       -4.582034   -2.598970   -1.920724
    160          1           0       -6.735603   -2.107255    0.201546
    161          1           0       -6.154376   -0.907402   -0.962284
    162          1           0       -5.054761   -1.550795    0.281552
    163          1           0        2.299762   -5.904381   -1.240581
    164          1           0        3.082674   -4.402056   -1.725069
    165          1           0        3.388800   -5.893534   -2.637006
    166          1           0       -6.420266   -3.891376    4.250626
    167          1           0       -4.860539   -4.616116    3.820612
    168          1           0       -5.502486   -3.272061    2.870248
    169          1           0        5.482914   -1.530776   -1.948913
    170          1           0        5.075805   -1.721267   -3.662455
    171          1           0        5.062025   -3.133764   -2.592647
 ---------------------------------------------------------------------
 Rotational constants (GHZ):           0.0296851           0.0234854           0.0189600
 Leave Link  202 at Mon Apr  4 10:45:11 2022, MaxMem=  4294967296 cpu:               5.0 elap:               0.1
 (Enter /share/apps/g16/l301.exe)
 Standard basis: 6-311++G(d,p) (5D, 7F)
 Ernie: Thresh=  0.10000D-02 Tol=  0.10000D-05 Strict=F.
 There are  2501 symmetry adapted cartesian basis functions of A   symmetry.
 There are  2420 symmetry adapted basis functions of A   symmetry.
  2420 basis functions,  3740 primitive gaussians,  2501 cartesian basis functions
   302 alpha electrons      302 beta electrons
       nuclear repulsion energy     16518.1436687847 Hartrees.
 IExCor= 1009 DFT=T Ex+Corr=PBE1PBE ExCW=0 ScaHFX=  0.250000
 ScaDFX=  0.750000  0.750000  1.000000  1.000000 ScalE2=  1.000000  1.000000
 IRadAn=      5 IRanWt=     -1 IRanGd=            0 ICorTp=0 IEmpDi=  4
 NAtoms=  171 NActive=  171 NUniq=  171 SFac= 1.00D+00 NAtFMM=   60 NAOKFM=T Big=T
 Integral buffers will be    131072 words long.
 Raffenetti 2 integral format.
 Two-electron integral symmetry is turned on.
 Using the following non-standard input for PCM:
 eps=4.0
 --- end of non-standard input.
 ------------------------------------------------------------------------------
 Polarizable Continuum Model (PCM)
 =================================
 Model                : C-PCM.
 Atomic radii         : UFF (Universal Force Field).
 Polarization charges : Total charges.
 Charge compensation  : None.
 Solution method      : On-the-fly selection.
 Cavity type          : Scaled VdW (van der Waals Surface) (Alpha=1.100).
 Cavity algorithm     : GePol (No added spheres)
                        Default sphere list used, NSphG=  171.
                        Lebedev-Laikov grids with approx.  5.0 points / Ang**2.
                        Smoothing algorithm: York/Karplus (Gamma=1.0000).
                        Polarization charges: spherical gaussians, with
                                              point-specific exponents (IZeta= 3).
                        Self-potential: point-specific (ISelfS= 7).
                        Self-field    : sphere-specific E.n sum rule (ISelfD= 2).
 Solvent              : Water, Eps=   4.000000 Eps(inf)=   1.777849
 ------------------------------------------------------------------------------
 GePol: Number of generator spheres                  =     171
 GePol: Total number of spheres                      =     171
 GePol: Number of exposed spheres                    =     171 (100.00%)
 GePol: Number of points                             =    8861
 GePol: Average weight of points                     =       0.12
 GePol: Minimum weight of points                     =   0.13D-11
 GePol: Maximum weight of points                     =    0.20577
 GePol: Number of points with low weight             =     815
 GePol: Fraction of low-weight points (<1% of avg)   =       9.20%
 GePol: Cavity surface area                          =   1061.986 Ang**2
 GePol: Cavity volume                                =   1579.979 Ang**3
 Leave Link  301 at Mon Apr  4 10:45:11 2022, MaxMem=  4294967296 cpu:               4.7 elap:               0.1
 (Enter /share/apps/g16/l302.exe)
 NPDir=0 NMtPBC=     1 NCelOv=     1 NCel=       1 NClECP=     1 NCelD=      1
         NCelK=      1 NCelE2=     1 NClLst=     1 CellRange=     0.0.
 One-electron integrals computed using PRISM.
 One-electron integral symmetry used in STVInt
 NBasis=  2420 RedAO= T EigKep=  1.05D-06  NBF=  2420
 NBsUse=  2374 1.00D-06 EigRej=  9.85D-07 NBFU=  2374
 Precomputing XC quadrature grid using
 IXCGrd= 4 IRadAn=           5 IRanWt=          -1 IRanGd=           0 AccXCQ= 0.00D+00.
 Generated NRdTot=       0 NPtTot=           0 NUsed=           0 NTot=          32
 NSgBfM=  2087  2077  2082  2085  2087 MxSgAt=   171 MxSgA2=   171.
 Leave Link  302 at Mon Apr  4 10:45:36 2022, MaxMem=  4294967296 cpu:            1585.0 elap:              24.9
 (Enter /share/apps/g16/l303.exe)
 DipDrv:  MaxL=1.
 Leave Link  303 at Mon Apr  4 10:45:38 2022, MaxMem=  4294967296 cpu:              52.7 elap:               1.0
 (Enter /share/apps/g16/l401.exe)
 ExpMin= 3.60D-02 ExpMax= 9.34D+04 ExpMxC= 3.17D+03 IAcc=3 IRadAn=         5 AccDes= 0.00D+00
 Harris functional with IExCor= 1009 and IRadAn=       5 diagonalized for initial guess.
 HarFok:  IExCor= 1009 AccDes= 0.00D+00 IRadAn=         5 IDoV= 1 UseB2=F ITyADJ=14
 ICtDFT=  3500011 ScaDFX=  1.000000  1.000000  1.000000  1.000000
 FoFCou: FMM=F IPFlag=           0 FMFlag=      100000 FMFlg1=        2001
         NFxFlg=           0 DoJE=T BraDBF=F KetDBF=T FulRan=T
         wScrn=  0.000000 ICntrl=       500 IOpCl=  0 I1Cent=   200000004 NGrid=           0
         NMat0=    1 NMatS0=      1 NMatT0=    0 NMatD0=    1 NMtDS0=    0 NMtDT0=    0
 Petite list used in FoFCou.
 Harris En= -3821.41190906667    
 JPrj=0 DoOrth=F DoCkMO=F.
 Leave Link  401 at Mon Apr  4 10:46:21 2022, MaxMem=  4294967296 cpu:            2759.8 elap:              43.6
 (Enter /share/apps/g16/l502.exe)
 Integral symmetry usage will be decided dynamically.
 Closed shell SCF:
 Using DIIS extrapolation, IDIIS=  1040.
 NGot=  4294967296 LenX=  4282273394 LenY=  4276015892
 Requested convergence on RMS density matrix=1.00D-08 within  32 cycles.
 Requested convergence on MAX density matrix=1.00D-06.
 Requested convergence on             energy=1.00D-06.
 No special actions if energy rises.
 Fock matrices will be formed incrementally for  20 cycles.

 Cycle   1  Pass 1  IDiag  1:
 FoFJK:  IHMeth= 1 ICntrl=       0 DoSepK=F KAlg= 0 I1Cent=           0 FoldK=F
 IRaf= 760000000 NMat=       1 IRICut=       1 DoRegI=T DoRafI=F ISym2E= 0 IDoP0=0 IntGTp=1.
 FoFCou: FMM=T IPFlag=           0 FMFlag=      100000 FMFlg1=        2001
         NFxFlg=           0 DoJE=F BraDBF=F KetDBF=F FulRan=T
         wScrn=  0.000000 ICntrl=         0 IOpCl=  0 I1Cent=           0 NGrid=           0
         NMat0=    1 NMatS0=      1 NMatT0=    0 NMatD0=    1 NMtDS0=    0 NMtDT0=    0
 Symmetry not used in FoFCou.
 FMM levels:  10  Number of levels for PrismC:   9
 Inv3:  Mode=1 IEnd=   235551963.
 Iteration    1 A*A^-1 deviation from unit magnitude is 5.73D-14 for   3747.
 Iteration    1 A*A^-1 deviation from orthogonality  is 7.05D-15 for   6233   1791.
 Iteration    1 A^-1*A deviation from unit magnitude is 5.73D-14 for   3747.
 Iteration    1 A^-1*A deviation from orthogonality  is 6.25D-15 for   3511   1387.
 E= -3818.17079503175    
 DIIS: error= 1.28D-02 at cycle   1 NSaved=   1.
 NSaved= 1 IEnMin= 1 EnMin= -3818.17079503175     IErMin= 1 ErrMin= 1.28D-02
 ErrMax= 1.28D-02  0.00D+00 EMaxC= 1.00D-01 BMatC= 2.45D+00 BMatP= 2.45D+00
 IDIUse=3 WtCom= 8.72D-01 WtEn= 1.28D-01
 Coeff-Com:  0.100D+01
 Coeff-En:   0.100D+01
 Coeff:      0.100D+01
 Gap=     0.327 Goal=   None    Shift=    0.000
 GapD=    0.327 DampG=1.000 DampE=0.500 DampFc=0.5000 IDamp=-1.
 Damping current iteration by 5.00D-01
 RMSDP=1.85D-02 MaxDP=4.11D+00              OVMax= 2.62D-01

 Cycle   2  Pass 1  IDiag  1:
 RMSU=  8.28D-03    CP:  8.87D-01
 E= -3819.06847800241     Delta-E=       -0.897682970655 Rises=F Damp=T
 DIIS: error= 6.08D-03 at cycle   2 NSaved=   2.
 NSaved= 2 IEnMin= 2 EnMin= -3819.06847800241     IErMin= 2 ErrMin= 6.08D-03
 ErrMax= 6.08D-03  0.00D+00 EMaxC= 1.00D-01 BMatC= 2.08D-01 BMatP= 2.45D+00
 IDIUse=3 WtCom= 9.39D-01 WtEn= 6.08D-02
 Coeff-Com:  0.585D-01 0.942D+00
 Coeff-En:   0.142D+00 0.858D+00
 Coeff:      0.635D-01 0.936D+00
 Gap=     0.153 Goal=   None    Shift=    0.000
 RMSDP=7.30D-03 MaxDP=1.64D+00 DE=-8.98D-01 OVMax= 2.07D-01

 Cycle   3  Pass 1  IDiag  1:
 RMSU=  4.62D-03    CP:  8.13D-01  4.00D-01
 E= -3820.08924215205     Delta-E=       -1.020764149638 Rises=F Damp=F
 DIIS: error= 1.23D-02 at cycle   3 NSaved=   3.
 NSaved= 3 IEnMin= 3 EnMin= -3820.08924215205     IErMin= 2 ErrMin= 6.08D-03
 ErrMax= 1.23D-02  0.00D+00 EMaxC= 1.00D-01 BMatC= 2.57D-01 BMatP= 2.08D-01
 IDIUse=2 WtCom= 0.00D+00 WtEn= 1.00D+00
 Coeff-En:   0.000D+00 0.000D+00 0.100D+01
 Coeff:      0.000D+00 0.000D+00 0.100D+01
 Gap=     0.140 Goal=   None    Shift=    0.000
 RMSDP=9.33D-03 MaxDP=1.45D+00 DE=-1.02D+00 OVMax= 3.04D-01

 Cycle   4  Pass 1  IDiag  1:
 RMSU=  5.31D-03    CP:  8.26D-01  1.20D+00  1.59D-01
 E= -3819.15772072768     Delta-E=        0.931521424365 Rises=F Damp=F
 DIIS: error= 2.91D-02 at cycle   4 NSaved=   4.
 NSaved= 4 IEnMin= 3 EnMin= -3820.08924215205     IErMin= 2 ErrMin= 6.08D-03
 ErrMax= 2.91D-02  0.00D+00 EMaxC= 1.00D-01 BMatC= 1.37D+00 BMatP= 2.08D-01
 IDIUse=2 WtCom= 0.00D+00 WtEn= 1.00D+00
 Coeff-En:   0.000D+00 0.000D+00 0.790D+00 0.210D+00
 Coeff:      0.000D+00 0.000D+00 0.790D+00 0.210D+00
 Gap=     0.185 Goal=   None    Shift=    0.000
 RMSDP=4.57D-03 MaxDP=8.55D-01 DE= 9.32D-01 OVMax= 1.97D-01

 Cycle   5  Pass 1  IDiag  1:
 RMSU=  1.22D-03    CP:  7.94D-01  8.40D-01  4.96D-01  5.03D-01
 E= -3820.22524360161     Delta-E=       -1.067522873927 Rises=F Damp=F
 DIIS: error= 7.23D-03 at cycle   5 NSaved=   5.
 NSaved= 5 IEnMin= 5 EnMin= -3820.22524360161     IErMin= 2 ErrMin= 6.08D-03
 ErrMax= 7.23D-03  0.00D+00 EMaxC= 1.00D-01 BMatC= 9.54D-02 BMatP= 2.08D-01
 IDIUse=3 WtCom= 9.28D-01 WtEn= 7.23D-02
 Coeff-Com:  0.329D-02 0.604D-02 0.328D+00-0.459D-01 0.708D+00
 Coeff-En:   0.000D+00 0.000D+00 0.316D+00 0.000D+00 0.684D+00
 Coeff:      0.306D-02 0.560D-02 0.327D+00-0.425D-01 0.707D+00
 Gap=     0.139 Goal=   None    Shift=    0.000
 RMSDP=2.00D-03 MaxDP=3.58D-01 DE=-1.07D+00 OVMax= 5.39D-02

 Cycle   6  Pass 1  IDiag  1:
 RMSU=  4.93D-04    CP:  7.93D-01  6.80D-01  6.86D-01  3.01D-01  7.89D-01
 E= -3820.30376648947     Delta-E=       -0.078522887859 Rises=F Damp=F
 DIIS: error= 5.60D-04 at cycle   6 NSaved=   6.
 NSaved= 6 IEnMin= 6 EnMin= -3820.30376648947     IErMin= 6 ErrMin= 5.60D-04
 ErrMax= 5.60D-04  0.00D+00 EMaxC= 1.00D-01 BMatC= 2.07D-03 BMatP= 9.54D-02
 IDIUse=3 WtCom= 9.94D-01 WtEn= 5.60D-03
 Coeff-Com:  0.129D-02 0.347D-04 0.159D+00-0.542D-01 0.469D+00 0.425D+00
 Coeff-En:   0.000D+00 0.000D+00 0.000D+00 0.000D+00 0.000D+00 0.100D+01
 Coeff:      0.128D-02 0.345D-04 0.158D+00-0.539D-01 0.466D+00 0.428D+00
 Gap=     0.138 Goal=   None    Shift=    0.000
 RMSDP=2.97D-04 MaxDP=8.57D-02 DE=-7.85D-02 OVMax= 9.16D-03

 Cycle   7  Pass 1  IDiag  1:
 RMSU=  1.26D-04    CP:  7.91D-01  6.81D-01  6.73D-01  3.14D-01  8.20D-01
                    CP:  5.12D-01
 E= -3820.30558886214     Delta-E=       -0.001822372666 Rises=F Damp=F
 DIIS: error= 1.28D-04 at cycle   7 NSaved=   7.
 NSaved= 7 IEnMin= 7 EnMin= -3820.30558886214     IErMin= 7 ErrMin= 1.28D-04
 ErrMax= 1.28D-04  0.00D+00 EMaxC= 1.00D-01 BMatC= 6.72D-05 BMatP= 2.07D-03
 IDIUse=3 WtCom= 9.99D-01 WtEn= 1.28D-03
 Coeff-Com:  0.520D-03-0.264D-03 0.540D-01-0.219D-01 0.162D+00 0.177D+00
 Coeff-Com:  0.629D+00
 Coeff-En:   0.000D+00 0.000D+00 0.000D+00 0.000D+00 0.000D+00 0.000D+00
 Coeff-En:   0.100D+01
 Coeff:      0.520D-03-0.264D-03 0.539D-01-0.219D-01 0.162D+00 0.176D+00
 Coeff:      0.629D+00
 Gap=     0.138 Goal=   None    Shift=    0.000
 RMSDP=6.95D-05 MaxDP=1.04D-02 DE=-1.82D-03 OVMax= 2.00D-03

 Cycle   8  Pass 1  IDiag  1:
 RMSU=  5.41D-05    CP:  7.91D-01  6.80D-01  6.76D-01  3.13D-01  8.37D-01
                    CP:  5.09D-01  7.28D-01
 E= -3820.30563728331     Delta-E=       -0.000048421174 Rises=F Damp=F
 DIIS: error= 6.05D-05 at cycle   8 NSaved=   8.
 NSaved= 8 IEnMin= 8 EnMin= -3820.30563728331     IErMin= 8 ErrMin= 6.05D-05
 ErrMax= 6.05D-05  0.00D+00 EMaxC= 1.00D-01 BMatC= 1.60D-05 BMatP= 6.72D-05
 IDIUse=1 WtCom= 1.00D+00 WtEn= 0.00D+00
 Coeff-Com:  0.203D-03-0.472D-03 0.734D-02-0.361D-02 0.169D-01 0.267D-01
 Coeff-Com:  0.377D+00 0.576D+00
 Coeff:      0.203D-03-0.472D-03 0.734D-02-0.361D-02 0.169D-01 0.267D-01
 Coeff:      0.377D+00 0.576D+00
 Gap=     0.138 Goal=   None    Shift=    0.000
 RMSDP=2.86D-05 MaxDP=5.22D-03 DE=-4.84D-05 OVMax= 7.71D-04

 Cycle   9  Pass 1  IDiag  1:
 RMSU=  1.38D-05    CP:  7.91D-01  6.79D-01  6.78D-01  3.12D-01  8.30D-01
                    CP:  5.17D-01  8.09D-01  6.72D-01
 E= -3820.30565102073     Delta-E=       -0.000013737423 Rises=F Damp=F
 DIIS: error= 1.37D-05 at cycle   9 NSaved=   9.
 NSaved= 9 IEnMin= 9 EnMin= -3820.30565102073     IErMin= 9 ErrMin= 1.37D-05
 ErrMax= 1.37D-05  0.00D+00 EMaxC= 1.00D-01 BMatC= 1.27D-06 BMatP= 1.60D-05
 IDIUse=1 WtCom= 1.00D+00 WtEn= 0.00D+00
 Coeff-Com:  0.101D-03-0.356D-03 0.767D-03-0.551D-03-0.104D-02 0.420D-02
 Coeff-Com:  0.176D+00 0.334D+00 0.487D+00
 Coeff:      0.101D-03-0.356D-03 0.767D-03-0.551D-03-0.104D-02 0.420D-02
 Coeff:      0.176D+00 0.334D+00 0.487D+00
 Gap=     0.138 Goal=   None    Shift=    0.000
 RMSDP=7.38D-06 MaxDP=1.67D-03 DE=-1.37D-05 OVMax= 2.56D-04

 Cycle  10  Pass 1  IDiag  1:
 RMSU=  4.73D-06    CP:  7.91D-01  6.79D-01  6.78D-01  3.12D-01  8.31D-01
                    CP:  5.16D-01  8.20D-01  7.00D-01  6.90D-01
 E= -3820.30565216043     Delta-E=       -0.000001139702 Rises=F Damp=F
 DIIS: error= 4.30D-06 at cycle  10 NSaved=  10.
 NSaved=10 IEnMin=10 EnMin= -3820.30565216043     IErMin=10 ErrMin= 4.30D-06
 ErrMax= 4.30D-06  0.00D+00 EMaxC= 1.00D-01 BMatC= 9.60D-08 BMatP= 1.27D-06
 IDIUse=1 WtCom= 1.00D+00 WtEn= 0.00D+00
 Coeff-Com:  0.202D-04-0.107D-03-0.645D-03 0.224D-03-0.275D-02-0.382D-03
 Coeff-Com:  0.389D-01 0.899D-01 0.240D+00 0.635D+00
 Coeff:      0.202D-04-0.107D-03-0.645D-03 0.224D-03-0.275D-02-0.382D-03
 Coeff:      0.389D-01 0.899D-01 0.240D+00 0.635D+00
 Gap=     0.138 Goal=   None    Shift=    0.000
 RMSDP=2.63D-06 MaxDP=4.75D-04 DE=-1.14D-06 OVMax= 8.82D-05

 Cycle  11  Pass 1  IDiag  1:
 RMSU=  1.91D-06    CP:  7.91D-01  6.79D-01  6.78D-01  3.12D-01  8.30D-01
                    CP:  5.17D-01  8.22D-01  7.05D-01  7.00D-01  7.35D-01
 E= -3820.30565224365     Delta-E=       -0.000000083219 Rises=F Damp=F
 DIIS: error= 2.18D-06 at cycle  11 NSaved=  11.
 NSaved=11 IEnMin=11 EnMin= -3820.30565224365     IErMin=11 ErrMin= 2.18D-06
 ErrMax= 2.18D-06  0.00D+00 EMaxC= 1.00D-01 BMatC= 1.67D-08 BMatP= 9.60D-08
 IDIUse=1 WtCom= 1.00D+00 WtEn= 0.00D+00
 Coeff-Com: -0.203D-05-0.140D-04-0.507D-03 0.171D-03-0.145D-02-0.203D-03
 Coeff-Com:  0.502D-02 0.175D-01 0.842D-01 0.351D+00 0.544D+00
 Coeff:     -0.203D-05-0.140D-04-0.507D-03 0.171D-03-0.145D-02-0.203D-03
 Coeff:      0.502D-02 0.175D-01 0.842D-01 0.351D+00 0.544D+00
 Gap=     0.138 Goal=   None    Shift=    0.000
 RMSDP=8.75D-07 MaxDP=1.36D-04 DE=-8.32D-08 OVMax= 3.50D-05

 Cycle  12  Pass 1  IDiag  1:
 RMSU=  6.15D-07    CP:  7.91D-01  6.79D-01  6.78D-01  3.12D-01  8.31D-01
                    CP:  5.18D-01  8.22D-01  7.05D-01  7.18D-01  8.05D-01
                    CP:  8.29D-01
 E= -3820.30565226313     Delta-E=       -0.000000019478 Rises=F Damp=F
 DIIS: error= 9.79D-07 at cycle  12 NSaved=  12.
 NSaved=12 IEnMin=12 EnMin= -3820.30565226313     IErMin=12 ErrMin= 9.79D-07
 ErrMax= 9.79D-07  0.00D+00 EMaxC= 1.00D-01 BMatC= 2.43D-09 BMatP= 1.67D-08
 IDIUse=1 WtCom= 1.00D+00 WtEn= 0.00D+00
 Coeff-Com: -0.519D-05 0.791D-05-0.240D-03 0.779D-04-0.523D-03 0.498D-04
 Coeff-Com: -0.213D-02-0.183D-02 0.154D-01 0.114D+00 0.308D+00 0.567D+00
 Coeff:     -0.519D-05 0.791D-05-0.240D-03 0.779D-04-0.523D-03 0.498D-04
 Coeff:     -0.213D-02-0.183D-02 0.154D-01 0.114D+00 0.308D+00 0.567D+00
 Gap=     0.138 Goal=   None    Shift=    0.000
 RMSDP=3.99D-07 MaxDP=7.99D-05 DE=-1.95D-08 OVMax= 1.73D-05

 Cycle  13  Pass 1  IDiag  1:
 RMSU=  2.53D-07    CP:  7.91D-01  6.79D-01  6.78D-01  3.12D-01  8.31D-01
                    CP:  5.18D-01  8.22D-01  7.06D-01  7.26D-01  8.12D-01
                    CP:  8.37D-01  7.20D-01
 E= -3820.30565226637     Delta-E=       -0.000000003238 Rises=F Damp=F
 DIIS: error= 2.88D-07 at cycle  13 NSaved=  13.
 NSaved=13 IEnMin=13 EnMin= -3820.30565226637     IErMin=13 ErrMin= 2.88D-07
 ErrMax= 2.88D-07  0.00D+00 EMaxC= 1.00D-01 BMatC= 2.60D-10 BMatP= 2.43D-09
 IDIUse=1 WtCom= 1.00D+00 WtEn= 0.00D+00
 Coeff-Com: -0.273D-05 0.648D-05-0.558D-04 0.166D-04-0.665D-04 0.940D-04
 Coeff-Com: -0.165D-02-0.334D-02-0.525D-02 0.148D-02 0.682D-01 0.289D+00
 Coeff-Com:  0.652D+00
 Coeff:     -0.273D-05 0.648D-05-0.558D-04 0.166D-04-0.665D-04 0.940D-04
 Coeff:     -0.165D-02-0.334D-02-0.525D-02 0.148D-02 0.682D-01 0.289D+00
 Coeff:      0.652D+00
 Gap=     0.138 Goal=   None    Shift=    0.000
 RMSDP=1.50D-07 MaxDP=1.63D-05 DE=-3.24D-09 OVMax= 6.11D-06

 Cycle  14  Pass 1  IDiag  1:
 RMSU=  9.44D-08    CP:  7.91D-01  6.79D-01  6.78D-01  3.12D-01  8.31D-01
                    CP:  5.18D-01  8.22D-01  7.06D-01  7.25D-01  8.19D-01
                    CP:  8.59D-01  8.25D-01  8.10D-01
 E= -3820.30565226420     Delta-E=        0.000000002168 Rises=F Damp=F
 DIIS: error= 5.49D-08 at cycle  14 NSaved=  14.
 NSaved=14 IEnMin=13 EnMin= -3820.30565226637     IErMin=14 ErrMin= 5.49D-08
 ErrMax= 5.49D-08  0.00D+00 EMaxC= 1.00D-01 BMatC= 3.56D-11 BMatP= 2.60D-10
 IDIUse=1 WtCom= 1.00D+00 WtEn= 0.00D+00
 Coeff-Com: -0.801D-06 0.225D-05 0.249D-06-0.273D-06 0.270D-04 0.415D-04
 Coeff-Com: -0.576D-03-0.155D-02-0.495D-02-0.159D-01-0.646D-02 0.777D-01
 Coeff-Com:  0.363D+00 0.588D+00
 Coeff:     -0.801D-06 0.225D-05 0.249D-06-0.273D-06 0.270D-04 0.415D-04
 Coeff:     -0.576D-03-0.155D-02-0.495D-02-0.159D-01-0.646D-02 0.777D-01
 Coeff:      0.363D+00 0.588D+00
 Gap=     0.138 Goal=   None    Shift=    0.000
 RMSDP=4.96D-08 MaxDP=1.50D-05 DE= 2.17D-09 OVMax= 2.43D-06

 Cycle  15  Pass 1  IDiag  1:
 RMSU=  3.25D-08    CP:  7.91D-01  6.79D-01  6.78D-01  3.12D-01  8.31D-01
                    CP:  5.18D-01  8.22D-01  7.06D-01  7.25D-01  8.20D-01
                    CP:  8.69D-01  8.36D-01  8.69D-01  8.47D-01
 E= -3820.30565226106     Delta-E=        0.000000003136 Rises=F Damp=F
 DIIS: error= 2.51D-08 at cycle  15 NSaved=  15.
 NSaved=15 IEnMin=13 EnMin= -3820.30565226637     IErMin=15 ErrMin= 2.51D-08
 ErrMax= 2.51D-08  0.00D+00 EMaxC= 1.00D-01 BMatC= 3.86D-12 BMatP= 3.56D-11
 IDIUse=1 WtCom= 1.00D+00 WtEn= 0.00D+00
 Coeff-Com: -0.149D-06 0.639D-06 0.708D-05-0.241D-05 0.251D-04 0.148D-04
 Coeff-Com: -0.143D-03-0.518D-03-0.212D-02-0.893D-02-0.980D-02 0.137D-01
 Coeff-Com:  0.132D+00 0.313D+00 0.564D+00
 Coeff:     -0.149D-06 0.639D-06 0.708D-05-0.241D-05 0.251D-04 0.148D-04
 Coeff:     -0.143D-03-0.518D-03-0.212D-02-0.893D-02-0.980D-02 0.137D-01
 Coeff:      0.132D+00 0.313D+00 0.564D+00
 Gap=     0.138 Goal=   None    Shift=    0.000
 RMSDP=1.99D-08 MaxDP=6.16D-06 DE= 3.14D-09 OVMax= 7.79D-07

 Cycle  16  Pass 1  IDiag  1:
 RMSU=  1.16D-08    CP:  7.91D-01  6.79D-01  6.78D-01  3.12D-01  8.31D-01
                    CP:  5.18D-01  8.22D-01  7.06D-01  7.25D-01  8.19D-01
                    CP:  8.70D-01  8.44D-01  8.89D-01  8.64D-01  7.62D-01
 E= -3820.30565226610     Delta-E=       -0.000000005035 Rises=F Damp=F
 DIIS: error= 9.98D-09 at cycle  16 NSaved=  16.
 NSaved=16 IEnMin=13 EnMin= -3820.30565226637     IErMin=16 ErrMin= 9.98D-09
 ErrMax= 9.98D-09  0.00D+00 EMaxC= 1.00D-01 BMatC= 6.40D-13 BMatP= 3.86D-12
 IDIUse=1 WtCom= 1.00D+00 WtEn= 0.00D+00
 Coeff-Com:  0.598D-07-0.331D-07 0.354D-05-0.105D-05 0.758D-05-0.124D-05
 Coeff-Com:  0.136D-04-0.307D-04-0.318D-03-0.228D-02-0.388D-02-0.411D-02
 Coeff-Com:  0.157D-01 0.759D-01 0.301D+00 0.618D+00
 Coeff:      0.598D-07-0.331D-07 0.354D-05-0.105D-05 0.758D-05-0.124D-05
 Coeff:      0.136D-04-0.307D-04-0.318D-03-0.228D-02-0.388D-02-0.411D-02
 Coeff:      0.157D-01 0.759D-01 0.301D+00 0.618D+00
 Gap=     0.138 Goal=   None    Shift=    0.000
 RMSDP=7.27D-09 MaxDP=1.51D-06 DE=-5.03D-09 OVMax= 3.24D-07

 Cycle  17  Pass 1  IDiag  1:
 RMSU=  4.34D-09    CP:  7.91D-01  6.79D-01  6.78D-01  3.12D-01  8.31D-01
                    CP:  5.18D-01  8.22D-01  7.06D-01  7.25D-01  8.19D-01
                    CP:  8.71D-01  8.43D-01  8.94D-01  8.81D-01  8.31D-01
                    CP:  8.02D-01
 E= -3820.30565226742     Delta-E=       -0.000000001324 Rises=F Damp=F
 DIIS: error= 3.50D-09 at cycle  17 NSaved=  17.
 NSaved=17 IEnMin=17 EnMin= -3820.30565226742     IErMin=17 ErrMin= 3.50D-09
 ErrMax= 3.50D-09  0.00D+00 EMaxC= 1.00D-01 BMatC= 7.27D-14 BMatP= 6.40D-13
 IDIUse=1 WtCom= 1.00D+00 WtEn= 0.00D+00
 Coeff-Com:  0.551D-07-0.104D-06 0.858D-06-0.226D-06 0.531D-06-0.280D-05
 Coeff-Com:  0.233D-04 0.507D-04 0.144D-03 0.151D-03-0.328D-03-0.355D-02
 Coeff-Com: -0.105D-01-0.893D-02 0.630D-01 0.305D+00 0.655D+00
 Coeff:      0.551D-07-0.104D-06 0.858D-06-0.226D-06 0.531D-06-0.280D-05
 Coeff:      0.233D-04 0.507D-04 0.144D-03 0.151D-03-0.328D-03-0.355D-02
 Coeff:     -0.105D-01-0.893D-02 0.630D-01 0.305D+00 0.655D+00
 Gap=     0.138 Goal=   None    Shift=    0.000
 RMSDP=2.67D-09 MaxDP=5.18D-07 DE=-1.32D-09 OVMax= 1.03D-07

 Error on total polarization charges =  0.02362
 SCF Done:  E(RPBE1PBE) =  -3820.30565227     A.U. after   17 cycles
            NFock= 17  Conv=0.27D-08     -V/T= 2.0040
 KE= 3.805129936848D+03 PE=-4.194825165647D+04 EE= 1.780467239857D+04
 Leave Link  502 at Mon Apr  4 12:38:55 2022, MaxMem=  4294967296 cpu:          428528.1 elap:            6753.9
 (Enter /share/apps/g16/l508.exe)
 QCSCF skips out because SCF is already converged.
 Leave Link  508 at Mon Apr  4 12:38:56 2022, MaxMem=  4294967296 cpu:               2.1 elap:               0.1
 (Enter /share/apps/g16/l601.exe)
 Copying SCF densities to generalized density rwf, IOpCl= 0 IROHF=0.
 Hyperfine terms turned off by default for NAtoms > 100.

 **********************************************************************

            Population analysis using the SCF Density.

 **********************************************************************

 Orbital symmetries:
       Occupied  (A) (A) (A) (A) (A) (A) (A) (A) (A) (A) (A) (A)
                 (A) (A) (A) (A) (A) (A) (A) (A) (A) (A) (A) (A)
                 (A) (A) (A) (A) (A) (A) (A) (A) (A) (A) (A) (A)
                 (A) (A) (A) (A) (A) (A) (A) (A) (A) (A) (A) (A)
                 (A) (A) (A) (A) (A) (A) (A) (A) (A) (A) (A) (A)
                 (A) (A) (A) (A) (A) (A) (A) (A) (A) (A) (A) (A)
                 (A) (A) (A) (A) (A) (A) (A) (A) (A) (A) (A) (A)
                 (A) (A) (A) (A) (A) (A) (A) (A) (A) (A) (A) (A)
                 (A) (A) (A) (A) (A) (A) (A) (A) (A) (A) (A) (A)
                 (A) (A) (A) (A) (A) (A) (A) (A) (A) (A) (A) (A)
                 (A) (A) (A) (A) (A) (A) (A) (A) (A) (A) (A) (A)
                 (A) (A) (A) (A) (A) (A) (A) (A) (A) (A) (A) (A)
                 (A) (A) (A) (A) (A) (A) (A) (A) (A) (A) (A) (A)
                 (A) (A) (A) (A) (A) (A) (A) (A) (A) (A) (A) (A)
                 (A) (A) (A) (A) (A) (A) (A) (A) (A) (A) (A) (A)
                 (A) (A) (A) (A) (A) (A) (A) (A) (A) (A) (A) (A)
                 (A) (A) (A) (A) (A) (A) (A) (A) (A) (A) (A) (A)
                 (A) (A) (A) (A) (A) (A) (A) (A) (A) (A) (A) (A)
                 (A) (A) (A) (A) (A) (A) (A) (A) (A) (A) (A) (A)
                 (A) (A) (A) (A) (A) (A) (A) (A) (A) (A) (A) (A)
                 (A) (A) (A) (A) (A) (A) (A) (A) (A) (A) (A) (A)
                 (A) (A) (A) (A) (A) (A) (A) (A) (A) (A) (A) (A)
                 (A) (A) (A) (A) (A) (A) (A) (A) (A) (A) (A) (A)
                 (A) (A) (A) (A) (A) (A) (A) (A) (A) (A) (A) (A)
                 (A) (A) (A) (A) (A) (A) (A) (A) (A) (A) (A) (A)
                 (A) (A)
       Virtual   (A) (A) (A) (A) (A) (A) (A) (A) (A) (A) (A) (A)
                 (A) (A) (A) (A) (A) (A) (A) (A) (A) (A) (A) (A)
                 (A) (A) (A) (A) (A) (A) (A) (A) (A) (A) (A) (A)
                 (A) (A) (A) (A) (A) (A) (A) (A) (A) (A) (A) (A)
                 (A) (A) (A) (A) (A) (A) (A) (A) (A) (A) (A) (A)
                 (A) (A) (A) (A) (A) (A) (A) (A) (A) (A) (A) (A)
                 (A) (A) (A) (A) (A) (A) (A) (A) (A) (A) (A) (A)
                 (A) (A) (A) (A) (A) (A) (A) (A) (A) (A) (A) (A)
                 (A) (A) (A) (A) (A) (A) (A) (A) (A) (A) (A) (A)
                 (A) (A) (A) (A) (A) (A) (A) (A) (A) (A) (A) (A)
                 (A) (A) (A) (A) (A) (A) (A) (A) (A) (A) (A) (A)
                 (A) (A) (A) (A) (A) (A) (A) (A) (A) (A) (A) (A)
                 (A) (A) (A) (A) (A) (A) (A) (A) (A) (A) (A) (A)
                 (A) (A) (A) (A) (A) (A) (A) (A) (A) (A) (A) (A)
                 (A) (A) (A) (A) (A) (A) (A) (A) (A) (A) (A) (A)
                 (A) (A) (A) (A) (A) (A) (A) (A) (A) (A) (A) (A)
                 (A) (A) (A) (A) (A) (A) (A) (A) (A) (A) (A) (A)
                 (A) (A) (A) (A) (A) (A) (A) (A) (A) (A) (A) (A)
                 (A) (A) (A) (A) (A) (A) (A) (A) (A) (A) (A) (A)
                 (A) (A) (A) (A) (A) (A) (A) (A) (A) (A) (A) (A)
                 (A) (A) (A) (A) (A) (A) (A) (A) (A) (A) (A) (A)
                 (A) (A) (A) (A) (A) (A) (A) (A) (A) (A) (A) (A)
                 (A) (A) (A) (A) (A) (A) (A) (A) (A) (A) (A) (A)
                 (A) (A) (A) (A) (A) (A) (A) (A) (A) (A) (A) (A)
                 (A) (A) (A) (A) (A) (A) (A) (A) (A) (A) (A) (A)
                 (A) (A) (A) (A) (A) (A) (A) (A) (A) (A) (A) (A)
                 (A) (A) (A) (A) (A) (A) (A) (A) (A) (A) (A) (A)
                 (A) (A) (A) (A) (A) (A) (A) (A) (A) (A) (A) (A)
                 (A) (A) (A) (A) (A) (A) (A) (A) (A) (A) (A) (A)
                 (A) (A) (A) (A) (A) (A) (A) (A) (A) (A) (A) (A)
                 (A) (A) (A) (A) (A) (A) (A) (A) (A) (A) (A) (A)
                 (A) (A) (A) (A) (A) (A) (A) (A) (A) (A) (A) (A)
                 (A) (A) (A) (A) (A) (A) (A) (A) (A) (A) (A) (A)
                 (A) (A) (A) (A) (A) (A) (A) (A) (A) (A) (A) (A)
                 (A) (A) (A) (A) (A) (A) (A) (A) (A) (A) (A) (A)
                 (A) (A) (A) (A) (A) (A) (A) (A) (A) (A) (A) (A)
                 (A) (A) (A) (A) (A) (A) (A) (A) (A) (A) (A) (A)
                 (A) (A) (A) (A) (A) (A) (A) (A) (A) (A) (A) (A)
                 (A) (A) (A) (A) (A) (A) (A) (A) (A) (A) (A) (A)
                 (A) (A) (A) (A) (A) (A) (A) (A) (A) (A) (A) (A)
                 (A) (A) (A) (A) (A) (A) (A) (A) (A) (A) (A) (A)
                 (A) (A) (A) (A) (A) (A) (A) (A) (A) (A) (A) (A)
                 (A) (A) (A) (A) (A) (A) (A) (A) (A) (A) (A) (A)
                 (A) (A) (A) (A) (A) (A) (A) (A) (A) (A) (A) (A)
                 (A) (A) (A) (A) (A) (A) (A) (A) (A) (A) (A) (A)
                 (A) (A) (A) (A) (A) (A) (A) (A) (A) (A) (A) (A)
                 (A) (A) (A) (A) (A) (A) (A) (A) (A) (A) (A) (A)
                 (A) (A) (A) (A) (A) (A) (A) (A) (A) (A) (A) (A)
                 (A) (A) (A) (A) (A) (A) (A) (A) (A) (A) (A) (A)
                 (A) (A) (A) (A) (A) (A) (A) (A) (A) (A) (A) (A)
                 (A) (A) (A) (A) (A) (A) (A) (A) (A) (A) (A) (A)
                 (A) (A) (A) (A) (A) (A) (A) (A) (A) (A) (A) (A)
                 (A) (A) (A) (A) (A) (A) (A) (A) (A) (A) (A) (A)
                 (A) (A) (A) (A) (A) (A) (A) (A) (A) (A) (A) (A)
                 (A) (A) (A) (A) (A) (A) (A) (A) (A) (A) (A) (A)
                 (A) (A) (A) (A) (A) (A) (A) (A) (A) (A) (A) (A)
                 (A) (A) (A) (A) (A) (A) (A) (A) (A) (A) (A) (A)
                 (A) (A) (A) (A) (A) (A) (A) (A) (A) (A) (A) (A)
                 (A) (A) (A) (A) (A) (A) (A) (A) (A) (A) (A) (A)
                 (A) (A) (A) (A) (A) (A) (A) (A) (A) (A) (A) (A)
                 (A) (A) (A) (A) (A) (A) (A) (A) (A) (A) (A) (A)
                 (A) (A) (A) (A) (A) (A) (A) (A) (A) (A) (A) (A)
                 (A) (A) (A) (A) (A) (A) (A) (A) (A) (A) (A) (A)
                 (A) (A) (A) (A) (A) (A) (A) (A) (A) (A) (A) (A)
                 (A) (A) (A) (A) (A) (A) (A) (A) (A) (A) (A) (A)
                 (A) (A) (A) (A) (A) (A) (A) (A) (A) (A) (A) (A)
                 (A) (A) (A) (A) (A) (A) (A) (A) (A) (A) (A) (A)
                 (A) (A) (A) (A) (A) (A) (A) (A) (A) (A) (A) (A)
                 (A) (A) (A) (A) (A) (A) (A) (A) (A) (A) (A) (A)
                 (A) (A) (A) (A) (A) (A) (A) (A) (A) (A) (A) (A)
                 (A) (A) (A) (A) (A) (A) (A) (A) (A) (A) (A) (A)
                 (A) (A) (A) (A) (A) (A) (A) (A) (A) (A) (A) (A)
                 (A) (A) (A) (A) (A) (A) (A) (A) (A) (A) (A) (A)
                 (A) (A) (A) (A) (A) (A) (A) (A) (A) (A) (A) (A)
                 (A) (A) (A) (A) (A) (A) (A) (A) (A) (A) (A) (A)
                 (A) (A) (A) (A) (A) (A) (A) (A) (A) (A) (A) (A)
                 (A) (A) (A) (A) (A) (A) (A) (A) (A) (A) (A) (A)
                 (A) (A) (A) (A) (A) (A) (A) (A) (A) (A) (A) (A)
                 (A) (A) (A) (A) (A) (A) (A) (A) (A) (A) (A) (A)
                 (A) (A) (A) (A) (A) (A) (A) (A) (A) (A) (A) (A)
                 (A) (A) (A) (A) (A) (A) (A) (A) (A) (A) (A) (A)
                 (A) (A) (A) (A) (A) (A) (A) (A) (A) (A) (A) (A)
                 (A) (A) (A) (A) (A) (A) (A) (A) (A) (A) (A) (A)
                 (A) (A) (A) (A) (A) (A) (A) (A) (A) (A) (A) (A)
                 (A) (A) (A) (A) (A) (A) (A) (A) (A) (A) (A) (A)
                 (A) (A) (A) (A) (A) (A) (A) (A) (A) (A) (A) (A)
                 (A) (A) (A) (A) (A) (A) (A) (A) (A) (A) (A) (A)
                 (A) (A) (A) (A) (A) (A) (A) (A) (A) (A) (A) (A)
                 (A) (A) (A) (A) (A) (A) (A) (A) (A) (A) (A) (A)
                 (A) (A) (A) (A) (A) (A) (A) (A) (A) (A) (A) (A)
                 (A) (A) (A) (A) (A) (A) (A) (A) (A) (A) (A) (A)
                 (A) (A) (A) (A) (A) (A) (A) (A) (A) (A) (A) (A)
                 (A) (A) (A) (A) (A) (A) (A) (A) (A) (A) (A) (A)
                 (A) (A) (A) (A) (A) (A) (A) (A) (A) (A) (A) (A)
                 (A) (A) (A) (A) (A) (A) (A) (A) (A) (A) (A) (A)
                 (A) (A) (A) (A) (A) (A) (A) (A) (A) (A) (A) (A)
                 (A) (A) (A) (A) (A) (A) (A) (A) (A) (A) (A) (A)
                 (A) (A) (A) (A) (A) (A) (A) (A) (A) (A) (A) (A)
                 (A) (A) (A) (A) (A) (A) (A) (A) (A) (A) (A) (A)
                 (A) (A) (A) (A) (A) (A) (A) (A) (A) (A) (A) (A)
                 (A) (A) (A) (A) (A) (A) (A) (A) (A) (A) (A) (A)
                 (A) (A) (A) (A) (A) (A) (A) (A) (A) (A) (A) (A)
                 (A) (A) (A) (A) (A) (A) (A) (A) (A) (A) (A) (A)
                 (A) (A) (A) (A) (A) (A) (A) (A) (A) (A) (A) (A)
                 (A) (A) (A) (A) (A) (A) (A) (A) (A) (A) (A) (A)
                 (A) (A) (A) (A) (A) (A) (A) (A) (A) (A) (A) (A)
                 (A) (A) (A) (A) (A) (A) (A) (A) (A) (A) (A) (A)
                 (A) (A) (A) (A) (A) (A) (A) (A) (A) (A) (A) (A)
                 (A) (A) (A) (A) (A) (A) (A) (A) (A) (A) (A) (A)
                 (A) (A) (A) (A) (A) (A) (A) (A) (A) (A) (A) (A)
                 (A) (A) (A) (A) (A) (A) (A) (A) (A) (A) (A) (A)
                 (A) (A) (A) (A) (A) (A) (A) (A) (A) (A) (A) (A)
                 (A) (A) (A) (A) (A) (A) (A) (A) (A) (A) (A) (A)
                 (A) (A) (A) (A) (A) (A) (A) (A) (A) (A) (A) (A)
                 (A) (A) (A) (A) (A) (A) (A) (A) (A) (A) (A) (A)
                 (A) (A) (A) (A) (A) (A) (A) (A) (A) (A) (A) (A)
                 (A) (A) (A) (A) (A) (A) (A) (A) (A) (A) (A) (A)
                 (A) (A) (A) (A) (A) (A) (A) (A) (A) (A) (A) (A)
                 (A) (A) (A) (A) (A) (A) (A) (A) (A) (A) (A) (A)
                 (A) (A) (A) (A) (A) (A) (A) (A) (A) (A) (A) (A)
                 (A) (A) (A) (A) (A) (A) (A) (A) (A) (A) (A) (A)
                 (A) (A) (A) (A) (A) (A) (A) (A) (A) (A) (A) (A)
                 (A) (A) (A) (A) (A) (A) (A) (A) (A) (A) (A) (A)
                 (A) (A) (A) (A) (A) (A) (A) (A) (A) (A) (A) (A)
                 (A) (A) (A) (A) (A) (A) (A) (A) (A) (A) (A) (A)
                 (A) (A) (A) (A) (A) (A) (A) (A) (A) (A) (A) (A)
                 (A) (A) (A) (A) (A) (A) (A) (A) (A) (A) (A) (A)
                 (A) (A) (A) (A) (A) (A) (A) (A) (A) (A) (A) (A)
                 (A) (A) (A) (A) (A) (A) (A) (A) (A) (A) (A) (A)
                 (A) (A) (A) (A) (A) (A) (A) (A) (A) (A) (A) (A)
                 (A) (A) (A) (A) (A) (A) (A) (A) (A) (A) (A) (A)
                 (A) (A) (A) (A) (A) (A) (A) (A) (A) (A) (A) (A)
                 (A) (A) (A) (A) (A) (A) (A) (A) (A) (A) (A) (A)
                 (A) (A) (A) (A) (A) (A) (A) (A) (A) (A) (A) (A)
                 (A) (A) (A) (A) (A) (A) (A) (A) (A) (A) (A) (A)
                 (A) (A) (A) (A) (A) (A) (A) (A) (A) (A) (A) (A)
                 (A) (A) (A) (A) (A) (A) (A) (A) (A) (A) (A) (A)
                 (A) (A) (A) (A) (A) (A) (A) (A) (A) (A) (A) (A)
                 (A) (A) (A) (A) (A) (A) (A) (A) (A) (A) (A) (A)
                 (A) (A) (A) (A) (A) (A) (A) (A) (A) (A) (A) (A)
                 (A) (A) (A) (A) (A) (A) (A) (A) (A) (A) (A) (A)
                 (A) (A) (A) (A) (A) (A) (A) (A) (A) (A) (A) (A)
                 (A) (A) (A) (A) (A) (A) (A) (A) (A) (A) (A) (A)
                 (A) (A) (A) (A) (A) (A) (A) (A) (A) (A) (A) (A)
                 (A) (A) (A) (A) (A) (A) (A) (A) (A) (A) (A) (A)
                 (A) (A) (A) (A) (A) (A) (A) (A) (A) (A) (A) (A)
                 (A) (A) (A) (A) (A) (A) (A) (A) (A) (A) (A) (A)
                 (A) (A) (A) (A) (A) (A) (A) (A) (A) (A) (A) (A)
                 (A) (A) (A) (A) (A) (A) (A) (A) (A) (A) (A) (A)
                 (A) (A) (A) (A) (A) (A) (A) (A) (A) (A) (A) (A)
                 (A) (A) (A) (A) (A) (A) (A) (A) (A) (A) (A) (A)
                 (A) (A) (A) (A) (A) (A) (A) (A) (A) (A) (A) (A)
                 (A) (A) (A) (A) (A) (A) (A) (A) (A) (A) (A) (A)
                 (A) (A) (A) (A) (A) (A) (A) (A) (A) (A) (A) (A)
                 (A) (A) (A) (A) (A) (A) (A) (A) (A) (A) (A) (A)
                 (A) (A) (A) (A) (A) (A) (A) (A) (A) (A) (A) (A)
                 (A) (A) (A) (A) (A) (A) (A) (A) (A) (A) (A) (A)
                 (A) (A) (A) (A) (A) (A) (A) (A) (A) (A) (A) (A)
                 (A) (A) (A) (A) (A) (A) (A) (A) (A) (A) (A) (A)
                 (A) (A) (A) (A) (A) (A) (A) (A) (A) (A) (A) (A)
                 (A) (A) (A) (A) (A) (A) (A) (A) (A) (A) (A) (A)
[...]
 Alpha virt. eigenvalues --    3.04428   3.04936   3.05087   3.05344   3.05685
 Alpha virt. eigenvalues --    3.05937   3.06320   3.06478   3.06682   3.06807
 Alpha virt. eigenvalues --    3.07230   3.07456   3.07583   3.07806   3.08049
 Alpha virt. eigenvalues --    3.08499   3.08698   3.08821   3.09139   3.09367
 Alpha virt. eigenvalues --    3.09895   3.10141   3.10561   3.10737   3.10836
 Alpha virt. eigenvalues --    3.11404   3.11484   3.11702   3.12086   3.12209
 Alpha virt. eigenvalues --    3.12407   3.12752   3.13161   3.13437   3.13771
 Alpha virt. eigenvalues --    3.14229   3.14520   3.14867   3.15037   3.15392
 Alpha virt. eigenvalues --    3.16089   3.16497   3.16831   3.16906   3.17348
 Alpha virt. eigenvalues --    3.17503   3.17738   3.18352   3.18651   3.18747
 Alpha virt. eigenvalues --    3.19622   3.19849   3.19973   3.20559   3.20804
 Alpha virt. eigenvalues --    3.21194   3.21693   3.22186   3.22398   3.23141
 Alpha virt. eigenvalues --    3.23275   3.23738   3.23870   3.24335   3.24947
 Alpha virt. eigenvalues --    3.25257   3.25865   3.25968   3.26201   3.27101
 Alpha virt. eigenvalues --    3.27558   3.27684   3.28158   3.28745   3.29800
 Alpha virt. eigenvalues --    3.29958   3.30236   3.30540   3.30799   3.31278
 Alpha virt. eigenvalues --    3.31577   3.32192   3.32903   3.33115   3.33411
 Alpha virt. eigenvalues --    3.34039   3.34370   3.34776   3.35177   3.35689
 Alpha virt. eigenvalues --    3.35791   3.36015   3.36687   3.38419   3.38660
 Alpha virt. eigenvalues --    3.39575   3.39959   3.40167   3.40788   3.41058
 Alpha virt. eigenvalues --    3.41212   3.41698   3.42651   3.42842   3.43462
 Alpha virt. eigenvalues --    3.43700   3.43975   3.44490   3.44910   3.45711
 Alpha virt. eigenvalues --    3.45935   3.46719   3.47524   3.47668   3.48263
 Alpha virt. eigenvalues --    3.48681   3.49205   3.50260   3.50798   3.51427
 Alpha virt. eigenvalues --    3.51715   3.52009   3.53765   3.54008   3.54647
 Alpha virt. eigenvalues --    3.55758   3.56221   3.56483   3.57330   3.57427
 Alpha virt. eigenvalues --    3.58473   3.59130   3.60218   3.61746   3.61877
 Alpha virt. eigenvalues --    3.62152   3.63470   3.63828   3.64726   3.65034
 Alpha virt. eigenvalues --    3.65580   3.65833   3.66405   3.66472   3.66906
 Alpha virt. eigenvalues --    3.67390   3.67808   3.68763   3.68939   3.69899
 Alpha virt. eigenvalues --    3.71473   3.73442   3.73931   3.74461   3.76063
 Alpha virt. eigenvalues --    3.76678   3.77255   3.78754   3.79155   3.79387
 Alpha virt. eigenvalues --    3.80843   3.81369   3.82014   3.82409   3.82973
 Alpha virt. eigenvalues --    3.83282   3.83673   3.83850   3.84104   3.84176
 Alpha virt. eigenvalues --    3.84453   3.84719   3.85156   3.85291   3.85722
 Alpha virt. eigenvalues --    3.85952   3.86196   3.86295   3.86447   3.86725
 Alpha virt. eigenvalues --    3.86937   3.86994   3.87457   3.87921   3.88015
 Alpha virt. eigenvalues --    3.88428   3.88547   3.89350   3.89809   3.90013
 Alpha virt. eigenvalues --    3.90462   3.90615   3.91402   3.92005   3.92503
 Alpha virt. eigenvalues --    3.92616   3.92654   3.93536   3.94819   3.95197
 Alpha virt. eigenvalues --    3.96304   3.99153   4.00591   4.01488   4.02380
 Alpha virt. eigenvalues --    4.02636   4.05376   4.06503   4.07101   4.07400
 Alpha virt. eigenvalues --    4.07835   4.08267   4.09001   4.09179   4.09909
 Alpha virt. eigenvalues --    4.10254   4.11824   4.12021   4.13719   4.15006
 Alpha virt. eigenvalues --    4.15982   4.17133   4.17869   4.19443   4.20546
 Alpha virt. eigenvalues --    4.21493   4.21604   4.22590   4.22915   4.23360
 Alpha virt. eigenvalues --    4.23599   4.23987   4.24382   4.24903   4.25244
 Alpha virt. eigenvalues --    4.26117   4.26505   4.26720   4.27285   4.28006
 Alpha virt. eigenvalues --    4.28231   4.28652   4.28901   4.29603   4.30344
 Alpha virt. eigenvalues --    4.31146   4.31455   4.35627   4.35849   4.36187
 Alpha virt. eigenvalues --    4.36560   4.38231   4.39133   4.41048   4.41704
 Alpha virt. eigenvalues --    4.41892   4.42525   4.43235   4.45149   4.45825
 Alpha virt. eigenvalues --    4.56099   4.65031   4.78206   4.83980   4.85635
 Alpha virt. eigenvalues --    4.89293   4.89786   4.90339   4.90686   4.92311
 Alpha virt. eigenvalues --    4.92653   4.97290   4.98220   5.00923   5.02389
 Alpha virt. eigenvalues --    5.11764   5.17776   5.22189   5.22857   5.25485
 Alpha virt. eigenvalues --    5.30911   5.31481   5.34532   5.37900   5.43618
 Alpha virt. eigenvalues --    5.45905   5.47747   5.50614   5.56858   5.64103
 Alpha virt. eigenvalues --    5.75093   5.83307   5.86911   5.91568   5.93634
 Alpha virt. eigenvalues --    6.01633   6.02650   8.11446  17.53200  17.63021
 Alpha virt. eigenvalues --   17.64157  23.80357  23.80882  23.83283  23.85168
 Alpha virt. eigenvalues --   23.86076  23.88324  23.97172  23.97660  23.98330
 Alpha virt. eigenvalues --   23.98951  23.99299  23.99422  24.01081  24.01115
 Alpha virt. eigenvalues --   24.02012  24.02650  24.03190  24.03468  24.03607
 Alpha virt. eigenvalues --   24.04740  24.05639  24.06343  24.07463  24.08439
 Alpha virt. eigenvalues --   24.09095  24.10164  24.10290  24.10955  24.11091
 Alpha virt. eigenvalues --   24.11548  24.11657  24.11894  24.12256  24.12597
 Alpha virt. eigenvalues --   24.12666  24.12991  24.13137  24.13585  24.13876
 Alpha virt. eigenvalues --   24.14371  24.15348  24.16010  24.16345  24.16624
 Alpha virt. eigenvalues --   24.16884  24.17466  24.17646  24.17776  24.18963
 Alpha virt. eigenvalues --   24.19172  24.20323  24.21359  24.21474  24.21757
 Alpha virt. eigenvalues --   24.22044  24.22778  24.22863  24.23176  24.23549
 Alpha virt. eigenvalues --   24.23956  24.24839  24.28738  24.29965  24.30238
 Alpha virt. eigenvalues --   24.30840  24.31430  24.32797  24.36507  35.71641
 Alpha virt. eigenvalues --   35.76549  35.80412  35.81572  35.84948  35.89210
 Alpha virt. eigenvalues --   50.11056  50.13708  50.18952  50.19732  50.22115
 Alpha virt. eigenvalues --   50.22875 189.50170
          Condensed to atoms (all electrons):
 Mulliken charges:
               1
     1  C   -0.323213
     2  C   -1.076404
     3  H    0.027574
     4  C   -0.535543
     5  H    0.155101
     6  H   -0.113413
     7  N    0.535457
     8  H   -0.125800
     9  C    0.017851
    10  C    0.042580
    11  C    0.223120
    12  C    0.195198
    13  C   -0.228905
    14  H    0.067518
    15  H    0.302641
    16  C   -0.570094
    17  H    0.246178
    18  C   -0.405213
    19  H    0.219416
    20  C   -0.769870
    21  H    0.258950
    22  H    0.272363
    23  C   -0.043027
    24  H   -0.033194
    25  H    0.192103
    26  H    0.417186
    27  C    1.445450
    28  C   -1.155821
    29  H    0.227175
    30  H    0.188921
    31  H    0.143904
    32  C   -0.105349
    33  H    0.193234
    34  H    0.153786
    35  C   -0.735461
    36  H    0.200623
    37  H    0.200277
    38  H    0.182512
    39  C   -0.735115
    40  C   -0.517366
    41  H    0.180475
    42  H    0.248043
    43  C   -0.606454
    44  H    0.276933
    45  H    0.230104
    46  C   -0.571489
    47  O    0.104590
    48  N    0.008088
    49  H    0.388361
    50  H    0.522967
    51  C   -1.099055
    52  C   -0.429750
    53  H    0.226682
    54  H    0.234729
    55  C    0.247290
    56  C   -1.118601
    57  H    0.292867
    58  C    0.364673
    59  H    0.231543
    60  C    0.228315
    61  O    0.006088
    62  H    0.272831
    63  C   -0.508855
    64  H    0.196851
    65  C   -0.040619
    66  H    0.331486
    67  C   -1.001297
    68  C   -0.310506
    69  H   -0.025743
    70  H    0.270800
    71  C    0.564848
    72  C   -0.469557
    73  H    0.225428
    74  C   -0.518336
    75  H    0.250540
    76  C   -0.264420
    77  H    0.245543
    78  C   -0.150382
    79  H    0.484604
    80  C    0.263523
    81  H   -0.062019
    82  C   -0.910124
    83  C   -0.272115
    84  H    0.001328
    85  H    0.325683
    86  S    0.295206
    87  C   -1.790669
    88  H    0.300247
    89  H    0.299732
    90  C    0.938655
    91  C   -0.576196
    92  C   -0.102571
    93  H    0.344623
    94  C   -0.045073
    95  C   -0.636861
    96  H    0.255637
    97  H    0.224167
    98  H    0.189998
    99  C   -0.008856
   100  H    0.297011
   101  C   -0.257729
   102  N    1.079315
   103  C   -0.707662
   104  C    0.373139
   105  O   -0.026224
   106  N   -0.005934
   107  H    0.477441
   108  C   -0.346376
   109  O   -0.204124
   110  N    0.110551
   111  C   -0.214411
   112  N    0.520397
   113  C   -0.353374
   114  C   -1.064734
   115  C    0.074914
   116  H    0.415458
   117  H    0.102812
   118  C    0.223403
   119  C    0.383467
   120  H   -0.000488
   121  C   -0.352013
   122  H    0.511314
   123  C   -0.574848
   124  O   -0.022827
   125  H    0.330163
   126  C   -0.404667
   127  H    0.237707
   128  C   -0.339109
   129  H    0.236113
   130  C   -0.540051
   131  C   -0.642817
   132  H    0.178168
   133  H    0.258472
   134  C    0.626333
   135  C   -0.769819
   136  H    0.255372
   137  C   -0.157015
   138  H    0.184738
   139  C   -0.115374
   140  O    0.433640
   141  H   -0.782989
   142  C   -0.012573
   143  H    0.200717
   144  C   -0.449812
   145  H    0.279909
   146  H    0.203405
   147  H    0.161752
   148  H    0.226244
   149  H    0.193811
   150  H    0.288188
   151  H    0.233086
   152  H    0.130433
   153  H    0.216337
   154  H    0.217592
   155  H    0.193946
   156  H    0.193092
   157  H    0.198413
   158  C   -0.890842
   159  H   -0.124684
   160  H    0.228017
   161  H    0.176563
   162  H   -0.127716
   163  H    0.172619
   164  H   -0.000163
   165  H    0.233790
   166  H    0.207636
   167  H    0.193052
   168  H    0.174256
   169  H    0.258824
   170  H    0.224375
   171  H    0.183126
 Sum of Mulliken charges =  -0.00000
 Mulliken charges with hydrogens summed into heavy atoms:
               1
     1  C   -0.436626
     2  C   -1.048831
     4  C   -0.380442
     7  N    0.409656
     9  C    0.435037
    10  C    0.042580
    11  C    0.290637
    12  C    0.195198
    13  C    0.073736
    16  C   -0.323916
    18  C   -0.185797
    20  C   -0.238558
    23  C    0.115882
    27  C    1.320765
    28  C   -0.595821
    32  C    0.241670
    35  C   -0.152050
    39  C   -0.160170
    40  C   -0.088848
    43  C   -0.099417
    46  C   -0.571489
    47  O    0.104590
    48  N    0.919417
    51  C   -0.513603
    52  C    0.031661
    55  C    0.247290
    56  C   -0.825734
    58  C    0.596216
    60  C    0.228315
    61  O    0.278920
    63  C   -0.312004
    65  C    0.290867
    67  C   -0.436935
    68  C   -0.065450
    71  C    0.564848
    72  C   -0.244129
    74  C   -0.267795
    76  C   -0.018877
    78  C    0.334222
    80  C    0.201504
    82  C   -0.318723
    83  C    0.054896
    86  S    0.295206
    87  C   -1.190690
    90  C    0.938655
    91  C   -0.231572
    92  C   -0.102571
    94  C   -0.045073
    95  C    0.032941
    99  C    0.288155
   101  C   -0.257729
   102  N    1.079315
   103  C   -0.707662
   104  C    0.373139
   105  O   -0.026224
   106  N    0.471507
   108  C   -0.346376
   109  O   -0.204124
   110  N    0.110551
   111  C   -0.214411
   112  N    0.520397
   113  C    0.361712
   114  C   -0.398409
   115  C    0.593184
   118  C    0.223403
   119  C    0.382979
   121  C    0.159301
   123  C   -0.574848
   124  O    0.307336
   126  C   -0.166960
   128  C   -0.102996
   130  C   -0.133805
   131  C   -0.206177
   134  C    0.626333
   135  C   -0.514447
   137  C    0.027723
   139  C   -0.115374
   140  O   -0.349349
   142  C    0.188144
   144  C   -0.169902
   158  C   -0.613979
 Electronic spatial extent (au):  <R**2>=          65513.2132
 Charge=             -0.0000 electrons
 Dipole moment (field-independent basis, Debye):
    X=             -0.2152    Y=             11.6846    Z=             -2.3741  Tot=             11.9253
 Quadrupole moment (field-independent basis, Debye-Ang):
   XX=           -469.8865   YY=           -518.9095   ZZ=           -473.8865
   XY=            -14.4685   XZ=             -0.8551   YZ=             -9.1195
 Traceless Quadrupole moment (field-independent basis, Debye-Ang):
   XX=             17.6743   YY=            -31.3486   ZZ=             13.6743
   XY=            -14.4685   XZ=             -0.8551   YZ=             -9.1195
 Octapole moment (field-independent basis, Debye-Ang**2):
  XXX=           -154.4553  YYY=            441.2203  ZZZ=             37.5310  XYY=             37.3742
  XXY=              9.1064  XXZ=            131.5648  XZZ=            -77.8223  YZZ=             50.9004
  YYZ=            -79.9817  XYZ=             80.3920
 Hexadecapole moment (field-independent basis, Debye-Ang**3):
 XXXX=         -43405.9945 YYYY=         -32001.1335 ZZZZ=         -16131.2131 XXXY=           -117.3701
 XXXZ=           1043.2524 YYYX=           -333.2812 YYYZ=            213.1893 ZZZX=           -707.1835
 ZZZY=           -464.7841 XXYY=         -11897.1450 XXZZ=          -9657.2392 YYZZ=          -7650.2960
 XXYZ=           -454.9866 YYXZ=            -21.6224 ZZXY=             76.3744
 N-N= 1.651814366878D+04 E-N=-4.194825165456D+04  KE= 3.805129936848D+03
 Leave Link  601 at Mon Apr  4 12:39:00 2022, MaxMem=  4294967296 cpu:             193.5 elap:               3.8
 (Enter /share/apps/g16/l9999.exe)
 1\1\GINC-COMPUTE-0-7\SP\RPBE1PBE\6-311++G(d,p)\C68H90N6O6S1\RVIANELLO\
 04-Apr-2022\0\\#p PBE1PBE/6-311++G(d,p) scrf=(CPCM,solvent=water,Read)
  scf=(XQC,Tight)\\optimisation\\0,1\C,0,-0.045435,-0.297065,0.593792\C
 ,0,1.246482,-0.912587,0.88064\H,0,1.88205,-1.048719,0.004677\C,0,-0.24
 0614,0.262278,-0.619915\H,0,0.581571,0.331249,-1.336068\H,0,-0.836331,
 -0.33344,1.338002\N,0,-1.421823,0.743906,-1.071436\H,0,-2.245917,0.585
 497,-0.50149\C,0,-1.544342,1.619306,-2.206443\C,0,-2.964867,1.670599,-
 2.724762\C,0,-3.913974,0.652467,-2.735364\C,0,-3.27062,2.954557,-3.178
 909\C,0,-5.19251,0.938897,-3.22487\H,0,-3.669117,-0.3357,-2.343901\H,0
 ,-5.951647,0.161737,-3.241203\C,0,-5.496703,2.216322,-3.702284\H,0,-6.
 493058,2.424211,-4.080286\C,0,-4.536636,3.230921,-3.684161\H,0,-4.7876
 91,4.228848,-4.033889\C,0,-2.091802,3.881745,-2.971171\H,0,-1.546429,4
 .02476,-3.913684\H,0,-2.394407,4.87167,-2.614247\C,0,-1.235621,3.11301
 8,-1.943713\H,0,-1.577421,3.347683,-0.928097\H,0,-0.166274,3.33875,-2.
 005175\H,0,-0.874408,1.240017,-2.995737\C,0,-5.451847,-2.93965,-1.3414
 52\C,0,-5.024558,-4.16166,-0.526709\H,0,-5.890763,-4.600086,-0.013184\
 H,0,-4.57506,-4.936912,-1.154686\H,0,-4.289981,-3.880828,0.235607\C,0,
 -6.581916,-3.26752,-2.32383\H,0,-7.466881,-3.584094,-1.753245\H,0,-6.8
 69344,-2.347002,-2.850115\C,0,-6.220985,-4.340251,-3.349471\H,0,-7.016
 534,-4.463164,-4.090332\H,0,-5.302067,-4.072845,-3.883367\H,0,-6.05871
 5,-5.311939,-2.873726\C,0,-5.413127,-3.673002,3.8859\C,0,-4.700744,-2.
 687619,4.810501\H,0,-5.243758,-1.735345,4.826195\H,0,-4.704424,-3.0660
 51,5.837611\C,0,-3.240045,-2.439,4.398147\H,0,-2.775577,-1.682658,5.03
 7745\H,0,-2.663449,-3.362728,4.492365\C,0,-3.167787,-2.000487,2.954542
 \O,0,-2.844442,-2.791068,2.053802\N,0,-3.55617,-0.742938,2.699586\H,0,
 -3.818379,-0.118981,3.449778\H,0,-3.625744,-0.385611,1.749931\C,0,-3.8
 0827,7.04698,2.224823\C,0,-2.760426,6.384229,1.324275\H,0,-2.679247,6.
 942656,0.383558\H,0,-1.776955,6.430976,1.806278\C,0,-3.097478,4.940969
 ,1.034429\C,0,-4.06414,4.60404,0.081444\H,0,-4.547172,5.390758,-0.4947
 34\C,0,-4.422593,3.278972,-0.149821\H,0,-5.163012,3.023804,-0.905253\C
 ,0,-3.794316,2.269705,0.574557\O,0,-4.079877,0.940245,0.365061\H,0,-4.
 635535,0.835398,-0.42743\C,0,-2.820026,2.575244,1.520689\H,0,-2.309751
 ,1.776372,2.053549\C,0,-2.484639,3.906234,1.74734\H,0,-1.717297,4.1402
 44,2.481593\C,0,0.365849,5.855463,-0.30844\C,0,1.418318,4.884391,0.234
 492\H,0,1.554316,4.07098,-0.483968\H,0,2.38352,5.402893,0.306017\C,0,1
 .051242,4.297701,1.576907\C,0,0.886837,5.114525,2.702456\H,0,1.044562,
 6.187605,2.613515\C,0,0.530617,4.569198,3.933595\H,0,0.410214,5.217334
 ,4.796931\C,0,0.331839,3.192813,4.060177\H,0,0.055887,2.769118,5.02117
 \C,0,0.496856,2.366622,2.949844\H,0,0.363948,1.28944,3.030258\C,0,0.85
 4807,2.92223,1.720134\H,0,0.980956,2.267579,0.859136\C,0,6.520488,1.65
 0984,-2.858743\C,0,6.801332,1.685002,-1.362099\H,0,5.859651,1.663578,-
 0.805502\H,0,7.347506,2.591856,-1.084617\S,0,7.779569,0.2264,-0.870268
 \C,0,7.502487,0.248017,0.941269\H,0,7.890988,1.182903,1.350097\H,0,8.1
 30141,-0.562463,1.32247\C,0,6.060524,0.025391,1.324572\C,0,5.51746,-1.
 251762,1.138227\C,0,4.182466,-1.526458,1.427173\H,0,6.165204,-2.026189
 ,0.741597\C,0,5.261995,1.058897,1.834653\C,0,5.792089,2.450579,2.08252
 2\H,0,6.548803,2.455327,2.874524\H,0,6.254858,2.879377,1.188007\H,0,4.
 981405,3.115126,2.390701\C,0,3.925621,0.771344,2.12963\H,0,3.264227,1.
 5464,2.508285\C,0,3.380154,-0.484611,1.919196\N,0,1.980451,-0.638127,2
 .119462\C,0,1.469495,-1.987633,1.941587\C,0,0.26852,-2.346678,2.757109
 \O,0,-0.391283,-1.540194,3.384248\N,0,-0.078727,-3.665143,2.637382\H,0
 ,-1.028537,-3.915339,2.902077\C,0,0.667414,-4.656757,1.981823\O,0,0.17
 2052,-5.756985,1.832575\N,0,1.954256,-4.355809,1.579381\C,0,2.35999,-3
 .119967,1.592893\N,0,3.638749,-2.823154,1.239369\C,0,4.528763,-3.88714
 1,0.783765\C,0,4.831424,-2.064242,-2.6516\C,0,3.35626,-1.801155,-2.335
 053\H,0,2.717294,-2.386845,-3.00535\H,0,3.139034,-2.159698,-1.318325\C
 ,0,2.994661,-0.340267,-2.452005\C,0,3.437909,0.585393,-1.498627\H,0,4.
 031984,0.237943,-0.654094\C,0,3.148173,1.940751,-1.608218\H,0,3.50085,
 2.651519,-0.86506\C,0,2.412151,2.400902,-2.703295\O,0,2.181637,3.74272
 1,-2.793247\H,0,1.660786,3.928211,-3.58966\C,0,1.947345,1.495657,-3.65
 6887\H,0,1.367395,1.852701,-4.505203\C,0,2.241367,0.139165,-3.525038\H
 ,0,1.878803,-0.556577,-4.277689\C,0,2.623041,-5.318992,-2.106886\C,0,1
 .446546,-4.989246,-3.030112\H,0,1.811851,-4.452546,-3.914079\H,0,1.014
 467,-5.927517,-3.402004\C,0,0.3689,-4.16394,-2.360362\C,0,-0.141705,-3
 .003268,-2.949138\H,0,0.248725,-2.681236,-3.913008\C,0,-1.141505,-2.24
 8876,-2.339457\H,0,-1.516839,-1.339616,-2.799648\C,0,-1.649875,-2.6425
 37,-1.099389\O,0,-2.60187,-1.879551,-0.501724\H,0,-2.743204,-2.2212,0.
 415236\C,0,-1.16886,-3.814797,-0.506235\H,0,-1.582214,-4.144255,0.4428
 18\C,0,-0.17181,-4.555507,-1.132374\H,0,0.182563,-5.458413,-0.642056\H
 ,0,5.953238,2.540397,-3.148767\H,0,5.926229,0.769922,-3.119437\H,0,7.4
 48245,1.631609,-3.438475\H,0,4.963124,-3.609196,-0.181031\H,0,3.945465
 ,-4.796978,0.677052\H,0,5.330778,-4.044208,1.510717\H,0,-0.61828,5.375
 64,-0.345379\H,0,0.630065,6.181091,-1.319844\H,0,0.278824,6.745753,0.3
 23279\H,0,-3.881704,6.518926,3.180648\H,0,-4.795711,7.023416,1.752749\
 H,0,-3.551486,8.09084,2.427705\C,0,-5.869833,-1.808648,-0.403165\H,0,-
 4.582034,-2.59897,-1.920724\H,0,-6.735603,-2.107255,0.201546\H,0,-6.15
 4376,-0.907402,-0.962284\H,0,-5.054761,-1.550795,0.281552\H,0,2.299762
 ,-5.904381,-1.240581\H,0,3.082674,-4.402056,-1.725069\H,0,3.3888,-5.89
 3534,-2.637006\H,0,-6.420266,-3.891376,4.250626\H,0,-4.860539,-4.61611
 6,3.820612\H,0,-5.502486,-3.272061,2.870248\H,0,5.482914,-1.530776,-1.
 948913\H,0,5.075805,-1.721267,-3.662455\H,0,5.062025,-3.133764,-2.5926
 47\\Version=ES64L-G16RevB.01\State=1-A\HF=-3820.3056523\RMSD=2.672e-09
 \Dipole=-0.0846815,4.5970808,-0.9340405\Quadrupole=13.1404353,-23.3069
 471,10.1665118,-10.7569601,-0.6357582,-6.7801099\PG=C01 [X(C68H90N6O6S
 1)]\\@


 LIVE PURE, SPEAK TRUE, RIGHT WRONG, FOLLOW THE KING...
 ELSE, WHEREFORE BORN......
           IDYLLS OF THE KING, TENNYSON
 Job cpu time:       5 days  0 hours 19 minutes 29.7 seconds.
 Elapsed time:       0 days  1 hours 53 minutes 48.2 seconds.
 File lengths (MBytes):  RWF=   3663 Int=      0 D2E=      0 Chk=    336 Scr=      1
 Normal termination of Gaussian 16 at Mon Apr  4 12:39:01 2022.
