 Entering Gaussian System, Link 0=g16
 Input=ras-n-k1-scan1-ts1.com
 Output=ras-n-k1-scan1-ts1.log
 Initial command:
 /share/apps/g16/l1.exe "/state/partition1/Gau-117239.inp" -scrdir="/state/partition1/"
 Entering Link 1 = /share/apps/g16/l1.exe PID=    117240.
  
 Copyright (c) 1988-2017, Gaussian, Inc.  All Rights Reserved.
  
 This is part of the Gaussian(R) 16 program.  It is based on
 the Gaussian(R) 09 system (copyright 2009, Gaussian, Inc.),
 the Gaussian(R) 03 system (copyright 2003, Gaussian, Inc.),
 the Gaussian(R) 98 system (copyright 1998, Gaussian, Inc.),
 the Gaussian(R) 94 system (copyright 1995, Gaussian, Inc.),
 the Gaussian 92(TM) system (copyright 1992, Gaussian, Inc.),
 the Gaussian 90(TM) system (copyright 1990, Gaussian, Inc.),
 the Gaussian 88(TM) system (copyright 1988, Gaussian, Inc.),
 the Gaussian 86(TM) system (copyright 1986, Carnegie Mellon
 University), and the Gaussian 82(TM) system (copyright 1983,
 Carnegie Mellon University). Gaussian is a federally registered
 trademark of Gaussian, Inc.
  
 This software contains proprietary and confidential information,
 including trade secrets, belonging to Gaussian, Inc.
  
 This software is provided under written license and may be
 used, copied, transmitted, or stored only in accord with that
 written license.
  
 The following legend is applicable only to US Government
 contracts under FAR:
  
                    RESTRICTED RIGHTS LEGEND
  
 Use, reproduction and disclosure by the US Government is
 subject to restrictions as set forth in subparagraphs (a)
 and (c) of the Commercial Computer Software - Restricted
 Rights clause in FAR 52.227-19.
  
 Gaussian, Inc.
 340 Quinnipiac St., Bldg. 40, Wallingford CT 06492
  
  
 ---------------------------------------------------------------
 Warning -- This program may not be used in any manner that
 competes with the business of Gaussian, Inc. or will provide
 assistance to any competitor of Gaussian, Inc.  The licensee
 of this program is prohibited from giving any competitor of
 Gaussian, Inc. access to this program.  By using this program,
 the user acknowledges that Gaussian, Inc. is engaged in the
 business of creating and licensing software in the field of
 computational chemistry and represents and warrants to the
 licensee that it is not a competitor of Gaussian, Inc. and that
 it will not use this program in any manner prohibited above.
 ---------------------------------------------------------------
  

 Cite this work as:
 Gaussian 16, Revision B.01,
 M. J. Frisch, G. W. Trucks, H. B. Schlegel, G. E. Scuseria, 
 M. A. Robb, J. R. Cheeseman, G. Scalmani, V. Barone, 
 G. A. Petersson, H. Nakatsuji, X. Li, M. Caricato, A. V. Marenich, 
 J. Bloino, B. G. Janesko, R. Gomperts, B. Mennucci, H. P. Hratchian, 
 J. V. Ortiz, A. F. Izmaylov, J. L. Sonnenberg, D. Williams-Young, 
 F. Ding, F. Lipparini, F. Egidi, J. Goings, B. Peng, A. Petrone, 
 T. Henderson, D. Ranasinghe, V. G. Zakrzewski, J. Gao, N. Rega, 
 G. Zheng, W. Liang, M. Hada, M. Ehara, K. Toyota, R. Fukuda, 
 J. Hasegawa, M. Ishida, T. Nakajima, Y. Honda, O. Kitao, H. Nakai, 
 T. Vreven, K. Throssell, J. A. Montgomery, Jr., J. E. Peralta, 
 F. Ogliaro, M. J. Bearpark, J. J. Heyd, E. N. Brothers, K. N. Kudin, 
 V. N. Staroverov, T. A. Keith, R. Kobayashi, J. Normand, 
 K. Raghavachari, A. P. Rendell, J. C. Burant, S. S. Iyengar, 
 J. Tomasi, M. Cossi, J. M. Millam, M. Klene, C. Adamo, R. Cammi, 
 J. W. Ochterski, R. L. Martin, K. Morokuma, O. Farkas, 
 J. B. Foresman, and D. J. Fox, Gaussian, Inc., Wallingford CT, 2016.
 
 ******************************************
 Gaussian 16:  ES64L-G16RevB.01 20-Dec-2017
                 1-Apr-2022 
 ******************************************
 %mem=32GB
 %nproc=64
 Will use up to   64 processors via shared memory.
 ----------------------------------------------------------------------
 #p PBE1PBE/6-311++G(d,p) scrf=(CPCM,solvent=water,Read) scf=(XQC,Tight
 )
 ----------------------------------------------------------------------
 1/38=1,40=2,172=1/1;
 2/12=2,17=6,18=5,40=1/2;
 3/5=4,6=6,7=1111,11=2,25=1,30=1,70=2103,72=1,74=-13/1,2,3;
 4//1;
 5/5=2,8=3,13=1,32=2,38=5,53=1/2,8;
 6/7=2,8=2,9=2,10=2,28=1/1;
 99/5=1,9=1/99;
 Leave Link    1 at Fri Apr  1 18:59:29 2022, MaxMem=  4294967296 cpu:               2.9 elap:               0.1
 (Enter /share/apps/g16/l101.exe)
 ------------
 optimisation
 ------------
 Symbolic Z-matrix:
 Charge =  0 Multiplicity = 1
 6                    0    -0.37575  -1.01811   0.51195 
 6                    0    -0.46636  -2.07865  -0.12232 
 1                    0    -0.42923  -3.14363  -0.27236 
 6                    0    -0.55022   0.36447   0.63727 
 1                    0    -1.40897   0.67081   1.23801 
 1                    0    -1.08767   0.46002  -0.65428 
 7                    0     0.5125    1.29697   0.6835 
 1                    0     1.31396   0.99434   0.13344 
 6                    0     0.88157   1.80954   2.00344 
 6                    0     2.18623   1.25669   2.54538 
 6                    0     2.67069  -0.04482   2.46334 
 6                    0     2.92393   2.26496   3.17041 
 6                    0     3.9242   -0.32962   3.00912 
 1                    0     2.08265  -0.82649   1.98404 
 1                    0     4.31493  -1.34238   2.97218 
 6                    0     4.67877   0.67991   3.61371 
 1                    0     5.65572   0.44608   4.027 
 6                    0     4.18196   1.9855    3.7003 
 1                    0     4.76907   2.76602   4.17751 
 6                    0     2.15037   3.56443   3.16123 
 1                    0     1.65763   3.70538   4.13203 
 1                    0     2.7813    4.44022   2.98432 
 6                    0     1.1124    3.33592   2.04565 
 1                    0     1.53101   3.64735   1.08195 
 1                    0     0.18013   3.88449   2.20662 
 1                    0     0.06512   1.54675   2.68964 
 6                    0     6.33153  -2.27254   1.08664 
 6                    0     6.52881  -3.18262  -0.12454 
 1                    0     7.59545  -3.29348  -0.35822 
 1                    0     6.10644  -4.17717   0.04377 
 1                    0     6.02953  -2.76637  -1.00718 
 6                    0     6.93489  -2.86131   2.36692 
 1                    0     8.01956  -2.97804   2.23076 
 1                    0     6.80667  -2.13008   3.17785 
 6                    0     6.31757  -4.19274   2.79175 
 1                    0     6.68482  -4.50299   3.77441 
 1                    0     5.22534  -4.11332   2.84808 
 1                    0     6.55369  -4.99203   2.08343 
 6                    0     6.66872  -0.21695  -2.97014 
 6                    0     5.39696   0.61795  -2.83793 
 1                    0     5.36363   1.09751  -1.85194 
 1                    0     5.41272   1.43281  -3.56933 
 6                    0     4.13234  -0.21468  -3.07464 
 1                    0     3.24441   0.42185  -3.15828 
 1                    0     4.2188   -0.77493  -4.0102 
 6                    0     3.82935  -1.23016  -1.99343 
 8                    0     3.55487  -2.41188  -2.28609 
 7                    0     3.84176  -0.81291  -0.72179 
 1                    0     4.11808   0.12188  -0.43143 
 1                    0     3.5916   -1.47996   0.00218 
 6                    0     2.73467   6.96391  -2.74256 
 6                    0     1.97685   6.3954   -1.538 
 1                    0     1.89356   7.16242  -0.75957 
 1                    0     0.95353   6.13349  -1.83515 
 6                    0     2.65658   5.17122  -0.97302 
 6                    0     3.54652   5.25469   0.10122 
 1                    0     3.72822   6.2187    0.57091 
 6                    0     4.21272   4.12847   0.58155 
 1                    0     4.90979   4.2068    1.41234 
 6                    0     3.97024   2.88779  -0.00328 
 8                    0     4.60704   1.74763   0.41515 
 1                    0     4.82605   1.80292   1.36324 
 6                    0     3.08258   2.77807  -1.07404 
 1                    0     2.87601   1.80243  -1.50799 
 6                    0     2.44708   3.91674  -1.55536 
 1                    0     1.75499   3.8283   -2.38875 
 6                    0    -0.75939   6.25463   0.76994 
 6                    0    -1.94581   5.30638   0.56851 
 1                    0    -1.91851   4.51884   1.33365 
 1                    0    -2.88437   5.8524    0.7159 
 6                    0    -1.94115   4.66698  -0.80058 
 6                    0    -2.91171   4.9775   -1.75663 
 1                    0    -3.69007   5.69735  -1.51268 
 6                    0    -2.90154   4.365    -3.01036 
 1                    0    -3.66981   4.61273  -3.73709 
 6                    0    -1.91502   3.43369  -3.32578 
 1                    0    -1.9152    2.94498  -4.29538 
 6                    0    -0.93638   3.12028  -2.38221 
 1                    0    -0.1904    2.35867  -2.59535 
 6                    0    -0.94939   3.73631  -1.13311 
 1                    0    -0.20034   3.45364  -0.39618 
 6                    0    -7.0764   -0.19883   3.28491 
 6                    0    -7.17588   0.52164   1.94716 
 1                    0    -6.18605   0.86404   1.63382 
 1                    0    -7.8353    1.39235   2.01416 
 16                   0    -7.81413  -0.61077   0.66812 
 6                    0    -7.30872   0.29504  -0.84208 
 1                    0    -7.70822   1.31047  -0.79703 
 1                    0    -7.82225  -0.22187  -1.65738 
 6                    0    -5.81747   0.2843   -1.07392 
 6                    0    -5.22921  -0.91191  -1.48387 
 6                    0    -3.8547   -1.00611  -1.71624 
 1                    0    -5.86701  -1.7789   -1.6179 
 6                    0    -5.02086   1.43035  -0.87892 
 6                    0    -5.60324   2.76872  -0.49177 
 1                    0    -6.18258   3.19977  -1.31656 
 1                    0    -6.27018   2.70204   0.37305 
 1                    0    -4.8014    3.47097  -0.25013 
 6                    0    -3.64998   1.32295  -1.09361 
 1                    0    -3.00597   2.18633  -0.9458 
 6                    0    -3.05493   0.12976  -1.50399 
 7                    0    -1.66842   0.10658  -1.73375 
 6                    0    -1.13807  -1.0763   -2.06635 
 6                    0     0.29328  -1.06701  -2.45378 
 8                    0     1.02573  -0.10936  -2.24264 
 7                    0     0.72266  -2.23998  -3.01145 
 1                    0     1.72869  -2.35353  -3.15201 
 6                    0    -0.07711  -3.36019  -3.29938 
 8                    0     0.44946  -4.33489  -3.80844 
 7                    0    -1.42033  -3.31502  -3.0019 
 6                    0    -1.92976  -2.24453  -2.44761 
 7                    0    -3.26838  -2.18321  -2.20361 
 6                    0    -4.13017  -3.31332  -2.54164 
 6                    0    -4.59747  -3.37798   1.86192 
 6                    0    -3.22963  -2.74939   1.58589 
 1                    0    -2.42653  -3.44962   1.84948 
 1                    0    -3.13014  -2.56393   0.50772 
 6                    0    -3.02016  -1.44323   2.31215 
 6                    0    -3.76325  -0.3159    1.94718 
 1                    0    -4.49071  -0.40615   1.1419 
 6                    0    -3.57436   0.91564   2.566 
 1                    0    -4.13221   1.79697   2.25911 
 6                    0    -2.6173    1.03834   3.57571 
 8                    0    -2.42786   2.27577   4.11866 
 1                    0    -1.76246   2.21989   4.82103 
 6                    0    -1.8762   -0.07764   3.96749 
 1                    0    -1.12803   0.01617   4.75136 
 6                    0    -2.08163  -1.30223   3.33502 
 1                    0    -1.47839  -2.15818   3.62842 
 6                    0    -2.67028  -5.65169  -0.5111 
 6                    0    -1.67207  -6.22652   0.4971 
 1                    0    -2.06708  -6.11077   1.51333 
 1                    0    -1.56642  -7.30539   0.3265 
 6                    0    -0.31927  -5.55472   0.41475 
 6                    0     0.29701  -5.00948   1.54592 
 1                    0    -0.19788  -5.08985   2.51145 
 6                    0     1.52135  -4.3499    1.46437 
 1                    0     1.98495  -3.91301   2.34405 
 6                    0     2.15709  -4.22315   0.22893 
 8                    0     3.34463  -3.5617    0.16538 
 1                    0     3.53625  -3.36234  -0.78501 
 6                    0     1.5678   -4.77432  -0.91161 
 1                    0     2.05284  -4.67311  -1.87866 
 6                    0     0.34414  -5.42847  -0.81193 
 1                    0    -0.10076  -5.82199  -1.72223 
 1                    0    -6.72105   0.49319   4.05379 
 1                    0    -6.36969  -1.03181   3.22233 
 1                    0    -8.04862  -0.58962   3.59968 
 1                    0    -4.6538   -3.65786  -1.64517 
 1                    0    -3.50453  -4.11046  -2.93159 
 1                    0    -4.85954  -3.00609  -3.29571 
 1                    0     0.1898    5.72692   0.62122 
 1                    0    -0.76017   6.67875   1.77882 
 1                    0    -0.79841   7.07777   0.04911 
 1                    0     2.80799   6.21699  -3.53933 
 1                    0     3.75171   7.25116  -2.45769 
 1                    0     2.22841   7.84566  -3.14592 
 6                    0     6.89997  -0.87861   0.82376 
 1                    0     5.24939  -2.18335   1.24718 
 1                    0     7.98162  -0.93195   0.64676 
 1                    0     6.73155  -0.21485   1.68032 
 1                    0     6.43629  -0.41574  -0.05341 
 1                    0    -2.34345  -5.82452  -1.54077 
 1                    0    -2.76082  -4.56748  -0.37917 
 1                    0    -3.66129  -6.10057  -0.38889 
 1                    0     7.56034   0.38406  -2.77021 
 1                    0     6.75543  -0.63144  -3.97973 
 1                    0     6.66889  -1.05608  -2.26601 
 1                    0    -5.40307  -2.71249   1.52994 
 1                    0    -4.73303  -3.56636   2.93179 
 1                    0    -4.70435  -4.32927   1.32975 
 
 ITRead=  0  0  0  0  0  0  0  0  0  0  0  0  0  0  0  0  0  0  0  0
 ITRead=  0  0  0  0  0  0  0  0  0  0  0  0  0  0  0  0  0  0  0  0
 ITRead=  0  0  0  0  0  0  0  0  0  0  0  0  0  0  0  0  0  0  0  0
 ITRead=  0  0  0  0  0  0  0  0  0  0  0  0  0  0  0  0  0  0  0  0
 ITRead=  0  0  0  0  0  0  0  0  0  0  0  0  0  0  0  0  0  0  0  0
 ITRead=  0  0  0  0  0  0  0  0  0  0  0  0  0  0  0  0  0  0  0  0
 ITRead=  0  0  0  0  0  0  0  0  0  0  0  0  0  0  0  0  0  0  0  0
 ITRead=  0  0  0  0  0  0  0  0  0  0  0  0  0  0  0  0  0  0  0  0
 ITRead=  0  0  0  0  0  0  0  0  0  0  0
 MicOpt= -1 -1 -1 -1 -1 -1 -1 -1 -1 -1 -1 -1 -1 -1 -1 -1 -1 -1 -1 -1
 MicOpt= -1 -1 -1 -1 -1 -1 -1 -1 -1 -1 -1 -1 -1 -1 -1 -1 -1 -1 -1 -1
 MicOpt= -1 -1 -1 -1 -1 -1 -1 -1 -1 -1 -1 -1 -1 -1 -1 -1 -1 -1 -1 -1
 MicOpt= -1 -1 -1 -1 -1 -1 -1 -1 -1 -1 -1 -1 -1 -1 -1 -1 -1 -1 -1 -1
 MicOpt= -1 -1 -1 -1 -1 -1 -1 -1 -1 -1 -1 -1 -1 -1 -1 -1 -1 -1 -1 -1
 MicOpt= -1 -1 -1 -1 -1 -1 -1 -1 -1 -1 -1 -1 -1 -1 -1 -1 -1 -1 -1 -1
 MicOpt= -1 -1 -1 -1 -1 -1 -1 -1 -1 -1 -1 -1 -1 -1 -1 -1 -1 -1 -1 -1
 MicOpt= -1 -1 -1 -1 -1 -1 -1 -1 -1 -1 -1 -1 -1 -1 -1 -1 -1 -1 -1 -1
 MicOpt= -1 -1 -1 -1 -1 -1 -1 -1 -1 -1 -1
 NAtoms=    171 NQM=      171 NQMF=       0 NMMI=      0 NMMIF=      0
                NMic=       0 NMicF=      0.
                    Isotopes and Nuclear Properties:
 (Nuclear quadrupole moments (NQMom) in fm**2, nuclear magnetic moments (NMagM)
  in nuclear magnetons)

  Atom         1           2           3           4           5           6           7           8           9          10
 IAtWgt=          12          12           1          12           1           1          14           1          12          12
 AtmWgt=  12.0000000  12.0000000   1.0078250  12.0000000   1.0078250   1.0078250  14.0030740   1.0078250  12.0000000  12.0000000
 NucSpn=           0           0           1           0           1           1           2           1           0           0
 AtZEff=  -0.0000000  -0.0000000  -0.0000000  -0.0000000  -0.0000000  -0.0000000  -0.0000000  -0.0000000  -0.0000000  -0.0000000
 NQMom=    0.0000000   0.0000000   0.0000000   0.0000000   0.0000000   0.0000000   2.0440000   0.0000000   0.0000000   0.0000000
 NMagM=    0.0000000   0.0000000   2.7928460   0.0000000   2.7928460   2.7928460   0.4037610   2.7928460   0.0000000   0.0000000
 AtZNuc=   6.0000000   6.0000000   1.0000000   6.0000000   1.0000000   1.0000000   7.0000000   1.0000000   6.0000000   6.0000000

  Atom        11          12          13          14          15          16          17          18          19          20
 IAtWgt=          12          12          12           1           1          12           1          12           1          12
 AtmWgt=  12.0000000  12.0000000  12.0000000   1.0078250   1.0078250  12.0000000   1.0078250  12.0000000   1.0078250  12.0000000
 NucSpn=           0           0           0           1           1           0           1           0           1           0
 AtZEff=  -0.0000000  -0.0000000  -0.0000000  -0.0000000  -0.0000000  -0.0000000  -0.0000000  -0.0000000  -0.0000000  -0.0000000
 NQMom=    0.0000000   0.0000000   0.0000000   0.0000000   0.0000000   0.0000000   0.0000000   0.0000000   0.0000000   0.0000000
 NMagM=    0.0000000   0.0000000   0.0000000   2.7928460   2.7928460   0.0000000   2.7928460   0.0000000   2.7928460   0.0000000
 AtZNuc=   6.0000000   6.0000000   6.0000000   1.0000000   1.0000000   6.0000000   1.0000000   6.0000000   1.0000000   6.0000000

  Atom        21          22          23          24          25          26          27          28          29          30
 IAtWgt=           1           1          12           1           1           1          12          12           1           1
 AtmWgt=   1.0078250   1.0078250  12.0000000   1.0078250   1.0078250   1.0078250  12.0000000  12.0000000   1.0078250   1.0078250
 NucSpn=           1           1           0           1           1           1           0           0           1           1
 AtZEff=  -0.0000000  -0.0000000  -0.0000000  -0.0000000  -0.0000000  -0.0000000  -0.0000000  -0.0000000  -0.0000000  -0.0000000
 NQMom=    0.0000000   0.0000000   0.0000000   0.0000000   0.0000000   0.0000000   0.0000000   0.0000000   0.0000000   0.0000000
 NMagM=    2.7928460   2.7928460   0.0000000   2.7928460   2.7928460   2.7928460   0.0000000   0.0000000   2.7928460   2.7928460
 AtZNuc=   1.0000000   1.0000000   6.0000000   1.0000000   1.0000000   1.0000000   6.0000000   6.0000000   1.0000000   1.0000000

  Atom        31          32          33          34          35          36          37          38          39          40
 IAtWgt=           1          12           1           1          12           1           1           1          12          12
 AtmWgt=   1.0078250  12.0000000   1.0078250   1.0078250  12.0000000   1.0078250   1.0078250   1.0078250  12.0000000  12.0000000
 NucSpn=           1           0           1           1           0           1           1           1           0           0
 AtZEff=  -0.0000000  -0.0000000  -0.0000000  -0.0000000  -0.0000000  -0.0000000  -0.0000000  -0.0000000  -0.0000000  -0.0000000
 NQMom=    0.0000000   0.0000000   0.0000000   0.0000000   0.0000000   0.0000000   0.0000000   0.0000000   0.0000000   0.0000000
 NMagM=    2.7928460   0.0000000   2.7928460   2.7928460   0.0000000   2.7928460   2.7928460   2.7928460   0.0000000   0.0000000
 AtZNuc=   1.0000000   6.0000000   1.0000000   1.0000000   6.0000000   1.0000000   1.0000000   1.0000000   6.0000000   6.0000000

  Atom        41          42          43          44          45          46          47          48          49          50
 IAtWgt=           1           1          12           1           1          12          16          14           1           1
 AtmWgt=   1.0078250   1.0078250  12.0000000   1.0078250   1.0078250  12.0000000  15.9949146  14.0030740   1.0078250   1.0078250
 NucSpn=           1           1           0           1           1           0           0           2           1           1
 AtZEff=  -0.0000000  -0.0000000  -0.0000000  -0.0000000  -0.0000000  -0.0000000  -0.0000000  -0.0000000  -0.0000000  -0.0000000
 NQMom=    0.0000000   0.0000000   0.0000000   0.0000000   0.0000000   0.0000000   0.0000000   2.0440000   0.0000000   0.0000000
 NMagM=    2.7928460   2.7928460   0.0000000   2.7928460   2.7928460   0.0000000   0.0000000   0.4037610   2.7928460   2.7928460
 AtZNuc=   1.0000000   1.0000000   6.0000000   1.0000000   1.0000000   6.0000000   8.0000000   7.0000000   1.0000000   1.0000000

  Atom        51          52          53          54          55          56          57          58          59          60
 IAtWgt=          12          12           1           1          12          12           1          12           1          12
 AtmWgt=  12.0000000  12.0000000   1.0078250   1.0078250  12.0000000  12.0000000   1.0078250  12.0000000   1.0078250  12.0000000
 NucSpn=           0           0           1           1           0           0           1           0           1           0
 AtZEff=  -0.0000000  -0.0000000  -0.0000000  -0.0000000  -0.0000000  -0.0000000  -0.0000000  -0.0000000  -0.0000000  -0.0000000
 NQMom=    0.0000000   0.0000000   0.0000000   0.0000000   0.0000000   0.0000000   0.0000000   0.0000000   0.0000000   0.0000000
 NMagM=    0.0000000   0.0000000   2.7928460   2.7928460   0.0000000   0.0000000   2.7928460   0.0000000   2.7928460   0.0000000
 AtZNuc=   6.0000000   6.0000000   1.0000000   1.0000000   6.0000000   6.0000000   1.0000000   6.0000000   1.0000000   6.0000000

  Atom        61          62          63          64          65          66          67          68          69          70
 IAtWgt=          16           1          12           1          12           1          12          12           1           1
 AtmWgt=  15.9949146   1.0078250  12.0000000   1.0078250  12.0000000   1.0078250  12.0000000  12.0000000   1.0078250   1.0078250
 NucSpn=           0           1           0           1           0           1           0           0           1           1
 AtZEff=  -0.0000000  -0.0000000  -0.0000000  -0.0000000  -0.0000000  -0.0000000  -0.0000000  -0.0000000  -0.0000000  -0.0000000
 NQMom=    0.0000000   0.0000000   0.0000000   0.0000000   0.0000000   0.0000000   0.0000000   0.0000000   0.0000000   0.0000000
 NMagM=    0.0000000   2.7928460   0.0000000   2.7928460   0.0000000   2.7928460   0.0000000   0.0000000   2.7928460   2.7928460
 AtZNuc=   8.0000000   1.0000000   6.0000000   1.0000000   6.0000000   1.0000000   6.0000000   6.0000000   1.0000000   1.0000000

  Atom        71          72          73          74          75          76          77          78          79          80
 IAtWgt=          12          12           1          12           1          12           1          12           1          12
 AtmWgt=  12.0000000  12.0000000   1.0078250  12.0000000   1.0078250  12.0000000   1.0078250  12.0000000   1.0078250  12.0000000
 NucSpn=           0           0           1           0           1           0           1           0           1           0
 AtZEff=  -0.0000000  -0.0000000  -0.0000000  -0.0000000  -0.0000000  -0.0000000  -0.0000000  -0.0000000  -0.0000000  -0.0000000
 NQMom=    0.0000000   0.0000000   0.0000000   0.0000000   0.0000000   0.0000000   0.0000000   0.0000000   0.0000000   0.0000000
 NMagM=    0.0000000   0.0000000   2.7928460   0.0000000   2.7928460   0.0000000   2.7928460   0.0000000   2.7928460   0.0000000
 AtZNuc=   6.0000000   6.0000000   1.0000000   6.0000000   1.0000000   6.0000000   1.0000000   6.0000000   1.0000000   6.0000000

  Atom        81          82          83          84          85          86          87          88          89          90
 IAtWgt=           1          12          12           1           1          32          12           1           1          12
 AtmWgt=   1.0078250  12.0000000  12.0000000   1.0078250   1.0078250  31.9720718  12.0000000   1.0078250   1.0078250  12.0000000
 NucSpn=           1           0           0           1           1           0           0           1           1           0
 AtZEff=  -0.0000000  -0.0000000  -0.0000000  -0.0000000  -0.0000000  -0.0000000  -0.0000000  -0.0000000  -0.0000000  -0.0000000
 NQMom=    0.0000000   0.0000000   0.0000000   0.0000000   0.0000000   0.0000000   0.0000000   0.0000000   0.0000000   0.0000000
 NMagM=    2.7928460   0.0000000   0.0000000   2.7928460   2.7928460   0.0000000   0.0000000   2.7928460   2.7928460   0.0000000
 AtZNuc=   1.0000000   6.0000000   6.0000000   1.0000000   1.0000000  16.0000000   6.0000000   1.0000000   1.0000000   6.0000000

  Atom        91          92          93          94          95          96          97          98          99         100
 IAtWgt=          12          12           1          12          12           1           1           1          12           1
 AtmWgt=  12.0000000  12.0000000   1.0078250  12.0000000  12.0000000   1.0078250   1.0078250   1.0078250  12.0000000   1.0078250
 NucSpn=           0           0           1           0           0           1           1           1           0           1
 AtZEff=  -0.0000000  -0.0000000  -0.0000000  -0.0000000  -0.0000000  -0.0000000  -0.0000000  -0.0000000  -0.0000000  -0.0000000
 NQMom=    0.0000000   0.0000000   0.0000000   0.0000000   0.0000000   0.0000000   0.0000000   0.0000000   0.0000000   0.0000000
 NMagM=    0.0000000   0.0000000   2.7928460   0.0000000   0.0000000   2.7928460   2.7928460   2.7928460   0.0000000   2.7928460
 AtZNuc=   6.0000000   6.0000000   1.0000000   6.0000000   6.0000000   1.0000000   1.0000000   1.0000000   6.0000000   1.0000000

  Atom       101         102         103         104         105         106         107         108         109         110
 IAtWgt=          12          14          12          12          16          14           1          12          16          14
 AtmWgt=  12.0000000  14.0030740  12.0000000  12.0000000  15.9949146  14.0030740   1.0078250  12.0000000  15.9949146  14.0030740
 NucSpn=           0           2           0           0           0           2           1           0           0           2
 AtZEff=  -0.0000000  -0.0000000  -0.0000000  -0.0000000  -0.0000000  -0.0000000  -0.0000000  -0.0000000  -0.0000000  -0.0000000
 NQMom=    0.0000000   2.0440000   0.0000000   0.0000000   0.0000000   2.0440000   0.0000000   0.0000000   0.0000000   2.0440000
 NMagM=    0.0000000   0.4037610   0.0000000   0.0000000   0.0000000   0.4037610   2.7928460   0.0000000   0.0000000   0.4037610
 AtZNuc=   6.0000000   7.0000000   6.0000000   6.0000000   8.0000000   7.0000000   1.0000000   6.0000000   8.0000000   7.0000000

  Atom       111         112         113         114         115         116         117         118         119         120
 IAtWgt=          12          14          12          12          12           1           1          12          12           1
 AtmWgt=  12.0000000  14.0030740  12.0000000  12.0000000  12.0000000   1.0078250   1.0078250  12.0000000  12.0000000   1.0078250
 NucSpn=           0           2           0           0           0           1           1           0           0           1
 AtZEff=  -0.0000000  -0.0000000  -0.0000000  -0.0000000  -0.0000000  -0.0000000  -0.0000000  -0.0000000  -0.0000000  -0.0000000
 NQMom=    0.0000000   2.0440000   0.0000000   0.0000000   0.0000000   0.0000000   0.0000000   0.0000000   0.0000000   0.0000000
 NMagM=    0.0000000   0.4037610   0.0000000   0.0000000   0.0000000   2.7928460   2.7928460   0.0000000   0.0000000   2.7928460
 AtZNuc=   6.0000000   7.0000000   6.0000000   6.0000000   6.0000000   1.0000000   1.0000000   6.0000000   6.0000000   1.0000000

  Atom       121         122         123         124         125         126         127         128         129         130
 IAtWgt=          12           1          12          16           1          12           1          12           1          12
 AtmWgt=  12.0000000   1.0078250  12.0000000  15.9949146   1.0078250  12.0000000   1.0078250  12.0000000   1.0078250  12.0000000
 NucSpn=           0           1           0           0           1           0           1           0           1           0
 AtZEff=  -0.0000000  -0.0000000  -0.0000000  -0.0000000  -0.0000000  -0.0000000  -0.0000000  -0.0000000  -0.0000000  -0.0000000
 NQMom=    0.0000000   0.0000000   0.0000000   0.0000000   0.0000000   0.0000000   0.0000000   0.0000000   0.0000000   0.0000000
 NMagM=    0.0000000   2.7928460   0.0000000   0.0000000   2.7928460   0.0000000   2.7928460   0.0000000   2.7928460   0.0000000
 AtZNuc=   6.0000000   1.0000000   6.0000000   8.0000000   1.0000000   6.0000000   1.0000000   6.0000000   1.0000000   6.0000000

  Atom       131         132         133         134         135         136         137         138         139         140
 IAtWgt=          12           1           1          12          12           1          12           1          12          16
 AtmWgt=  12.0000000   1.0078250   1.0078250  12.0000000  12.0000000   1.0078250  12.0000000   1.0078250  12.0000000  15.9949146
 NucSpn=           0           1           1           0           0           1           0           1           0           0
 AtZEff=  -0.0000000  -0.0000000  -0.0000000  -0.0000000  -0.0000000  -0.0000000  -0.0000000  -0.0000000  -0.0000000  -0.0000000
 NQMom=    0.0000000   0.0000000   0.0000000   0.0000000   0.0000000   0.0000000   0.0000000   0.0000000   0.0000000   0.0000000
 NMagM=    0.0000000   2.7928460   2.7928460   0.0000000   0.0000000   2.7928460   0.0000000   2.7928460   0.0000000   0.0000000
 AtZNuc=   6.0000000   1.0000000   1.0000000   6.0000000   6.0000000   1.0000000   6.0000000   1.0000000   6.0000000   8.0000000

  Atom       141         142         143         144         145         146         147         148         149         150
 IAtWgt=           1          12           1          12           1           1           1           1           1           1
 AtmWgt=   1.0078250  12.0000000   1.0078250  12.0000000   1.0078250   1.0078250   1.0078250   1.0078250   1.0078250   1.0078250
 NucSpn=           1           0           1           0           1           1           1           1           1           1
 AtZEff=  -0.0000000  -0.0000000  -0.0000000  -0.0000000  -0.0000000  -0.0000000  -0.0000000  -0.0000000  -0.0000000  -0.0000000
 NQMom=    0.0000000   0.0000000   0.0000000   0.0000000   0.0000000   0.0000000   0.0000000   0.0000000   0.0000000   0.0000000
 NMagM=    2.7928460   0.0000000   2.7928460   0.0000000   2.7928460   2.7928460   2.7928460   2.7928460   2.7928460   2.7928460
 AtZNuc=   1.0000000   6.0000000   1.0000000   6.0000000   1.0000000   1.0000000   1.0000000   1.0000000   1.0000000   1.0000000

  Atom       151         152         153         154         155         156         157         158         159         160
 IAtWgt=           1           1           1           1           1           1           1          12           1           1
 AtmWgt=   1.0078250   1.0078250   1.0078250   1.0078250   1.0078250   1.0078250   1.0078250  12.0000000   1.0078250   1.0078250
 NucSpn=           1           1           1           1           1           1           1           0           1           1
 AtZEff=  -0.0000000  -0.0000000  -0.0000000  -0.0000000  -0.0000000  -0.0000000  -0.0000000  -0.0000000  -0.0000000  -0.0000000
 NQMom=    0.0000000   0.0000000   0.0000000   0.0000000   0.0000000   0.0000000   0.0000000   0.0000000   0.0000000   0.0000000
 NMagM=    2.7928460   2.7928460   2.7928460   2.7928460   2.7928460   2.7928460   2.7928460   0.0000000   2.7928460   2.7928460
 AtZNuc=   1.0000000   1.0000000   1.0000000   1.0000000   1.0000000   1.0000000   1.0000000   6.0000000   1.0000000   1.0000000

  Atom       161         162         163         164         165         166         167         168         169         170
 IAtWgt=           1           1           1           1           1           1           1           1           1           1
 AtmWgt=   1.0078250   1.0078250   1.0078250   1.0078250   1.0078250   1.0078250   1.0078250   1.0078250   1.0078250   1.0078250
 NucSpn=           1           1           1           1           1           1           1           1           1           1
 AtZEff=  -0.0000000  -0.0000000  -0.0000000  -0.0000000  -0.0000000  -0.0000000  -0.0000000  -0.0000000  -0.0000000  -0.0000000
 NQMom=    0.0000000   0.0000000   0.0000000   0.0000000   0.0000000   0.0000000   0.0000000   0.0000000   0.0000000   0.0000000
 NMagM=    2.7928460   2.7928460   2.7928460   2.7928460   2.7928460   2.7928460   2.7928460   2.7928460   2.7928460   2.7928460
 AtZNuc=   1.0000000   1.0000000   1.0000000   1.0000000   1.0000000   1.0000000   1.0000000   1.0000000   1.0000000   1.0000000

  Atom       171
 IAtWgt=           1
 AtmWgt=   1.0078250
 NucSpn=           1
 AtZEff=  -0.0000000
 NQMom=    0.0000000
 NMagM=    2.7928460
 AtZNuc=   1.0000000
 Leave Link  101 at Fri Apr  1 18:59:30 2022, MaxMem=  4294967296 cpu:               5.9 elap:               0.1
 (Enter /share/apps/g16/l202.exe)
 Stoichiometry    C68H90N6O6S
 Framework group  C1[X(C68H90N6O6S)]
 Deg. of freedom   507
 Full point group                 C1      NOp   1
 Largest Abelian subgroup         C1      NOp   1
 Largest concise Abelian subgroup C1      NOp   1
                         Standard orientation:                         
 ---------------------------------------------------------------------
 Center     Atomic      Atomic             Coordinates (Angstroms)
 Number     Number       Type             X           Y           Z
 ---------------------------------------------------------------------
      1          6           0       -0.375750   -1.018110    0.511945
      2          6           0       -0.466361   -2.078648   -0.122323
      3          1           0       -0.429233   -3.143625   -0.272363
      4          6           0       -0.550223    0.364470    0.637274
      5          1           0       -1.408968    0.670809    1.238012
      6          1           0       -1.087674    0.460022   -0.654277
      7          7           0        0.512501    1.296970    0.683503
      8          1           0        1.313963    0.994340    0.133437
      9          6           0        0.881567    1.809543    2.003443
     10          6           0        2.186233    1.256690    2.545383
     11          6           0        2.670687   -0.044822    2.463343
     12          6           0        2.923929    2.264957    3.170413
     13          6           0        3.924199   -0.329619    3.009119
     14          1           0        2.082653   -0.826489    1.984036
     15          1           0        4.314933   -1.342382    2.972175
     16          6           0        4.678770    0.679906    3.613713
     17          1           0        5.655716    0.446084    4.026999
     18          6           0        4.181957    1.985503    3.700297
     19          1           0        4.769067    2.766023    4.177514
     20          6           0        2.150375    3.564432    3.161232
     21          1           0        1.657633    3.705377    4.132028
     22          1           0        2.781302    4.440215    2.984324
     23          6           0        1.112404    3.335917    2.045652
     24          1           0        1.531009    3.647350    1.081953
     25          1           0        0.180126    3.884492    2.206622
     26          1           0        0.065119    1.546749    2.689644
     27          6           0        6.331528   -2.272535    1.086638
     28          6           0        6.528807   -3.182622   -0.124539
     29          1           0        7.595449   -3.293476   -0.358221
     30          1           0        6.106440   -4.177173    0.043772
     31          1           0        6.029530   -2.766371   -1.007185
     32          6           0        6.934893   -2.861310    2.366919
     33          1           0        8.019555   -2.978039    2.230756
     34          1           0        6.806673   -2.130076    3.177850
     35          6           0        6.317574   -4.192737    2.791753
     36          1           0        6.684817   -4.502988    3.774406
     37          1           0        5.225336   -4.113324    2.848076
     38          1           0        6.553691   -4.992026    2.083427
     39          6           0        6.668723   -0.216952   -2.970137
     40          6           0        5.396956    0.617951   -2.837931
     41          1           0        5.363626    1.097507   -1.851937
     42          1           0        5.412718    1.432806   -3.569333
     43          6           0        4.132337   -0.214677   -3.074645
     44          1           0        3.244412    0.421853   -3.158281
     45          1           0        4.218802   -0.774929   -4.010200
     46          6           0        3.829350   -1.230164   -1.993430
     47          8           0        3.554873   -2.411878   -2.286095
     48          7           0        3.841757   -0.812909   -0.721794
     49          1           0        4.118076    0.121877   -0.431425
     50          1           0        3.591595   -1.479960    0.002177
     51          6           0        2.734664    6.963905   -2.742563
     52          6           0        1.976850    6.395401   -1.537995
     53          1           0        1.893561    7.162424   -0.759565
     54          1           0        0.953526    6.133494   -1.835146
     55          6           0        2.656577    5.171219   -0.973016
     56          6           0        3.546522    5.254695    0.101224
     57          1           0        3.728218    6.218701    0.570913
     58          6           0        4.212721    4.128466    0.581553
     59          1           0        4.909793    4.206804    1.412339
     60          6           0        3.970236    2.887786   -0.003276
     61          8           0        4.607044    1.747632    0.415150
     62          1           0        4.826050    1.802924    1.363242
     63          6           0        3.082583    2.778074   -1.074038
     64          1           0        2.876012    1.802425   -1.507990
     65          6           0        2.447081    3.916744   -1.555356
     66          1           0        1.754989    3.828299   -2.388746
     67          6           0       -0.759387    6.254627    0.769940
     68          6           0       -1.945814    5.306384    0.568512
     69          1           0       -1.918513    4.518843    1.333651
     70          1           0       -2.884369    5.852400    0.715896
     71          6           0       -1.941151    4.666981   -0.800579
     72          6           0       -2.911707    4.977498   -1.756632
     73          1           0       -3.690068    5.697345   -1.512675
     74          6           0       -2.901544    4.365003   -3.010359
     75          1           0       -3.669807    4.612729   -3.737086
     76          6           0       -1.915023    3.433685   -3.325777
     77          1           0       -1.915202    2.944980   -4.295382
     78          6           0       -0.936375    3.120279   -2.382207
     79          1           0       -0.190399    2.358669   -2.595347
     80          6           0       -0.949387    3.736314   -1.133113
     81          1           0       -0.200337    3.453635   -0.396178
     82          6           0       -7.076404   -0.198827    3.284909
     83          6           0       -7.175882    0.521643    1.947161
     84          1           0       -6.186052    0.864038    1.633823
     85          1           0       -7.835301    1.392353    2.014162
     86         16           0       -7.814129   -0.610766    0.668119
     87          6           0       -7.308716    0.295040   -0.842080
     88          1           0       -7.708221    1.310470   -0.797033
     89          1           0       -7.822253   -0.221869   -1.657377
     90          6           0       -5.817473    0.284302   -1.073923
     91          6           0       -5.229209   -0.911906   -1.483867
     92          6           0       -3.854695   -1.006114   -1.716240
     93          1           0       -5.867006   -1.778897   -1.617898
     94          6           0       -5.020857    1.430353   -0.878921
     95          6           0       -5.603244    2.768715   -0.491767
     96          1           0       -6.182578    3.199768   -1.316558
     97          1           0       -6.270176    2.702039    0.373054
     98          1           0       -4.801401    3.470973   -0.250127
     99          6           0       -3.649983    1.322950   -1.093606
    100          1           0       -3.005967    2.186325   -0.945800
    101          6           0       -3.054927    0.129762   -1.503985
    102          7           0       -1.668419    0.106584   -1.733754
    103          6           0       -1.138067   -1.076296   -2.066348
    104          6           0        0.293284   -1.067010   -2.453775
    105          8           0        1.025729   -0.109361   -2.242637
    106          7           0        0.722657   -2.239975   -3.011451
    107          1           0        1.728685   -2.353528   -3.152014
    108          6           0       -0.077106   -3.360189   -3.299382
    109          8           0        0.449461   -4.334888   -3.808439
    110          7           0       -1.420334   -3.315023   -3.001903
    111          6           0       -1.929762   -2.244534   -2.447609
    112          7           0       -3.268378   -2.183206   -2.203612
    113          6           0       -4.130169   -3.313322   -2.541642
    114          6           0       -4.597467   -3.377983    1.861915
    115          6           0       -3.229634   -2.749391    1.585894
    116          1           0       -2.426527   -3.449622    1.849475
    117          1           0       -3.130135   -2.563928    0.507721
    118          6           0       -3.020158   -1.443233    2.312146
    119          6           0       -3.763246   -0.315897    1.947183
    120          1           0       -4.490711   -0.406146    1.141895
    121          6           0       -3.574361    0.915642    2.565995
    122          1           0       -4.132207    1.796970    2.259111
    123          6           0       -2.617303    1.038340    3.575712
    124          8           0       -2.427858    2.275769    4.118661
    125          1           0       -1.762455    2.219888    4.821026
    126          6           0       -1.876201   -0.077640    3.967486
    127          1           0       -1.128028    0.016173    4.751359
    128          6           0       -2.081629   -1.302226    3.335019
    129          1           0       -1.478390   -2.158178    3.628415
    130          6           0       -2.670276   -5.651694   -0.511095
    131          6           0       -1.672072   -6.226518    0.497104
    132          1           0       -2.067078   -6.110773    1.513328
    133          1           0       -1.566419   -7.305395    0.326497
    134          6           0       -0.319271   -5.554719    0.414749
    135          6           0        0.297010   -5.009480    1.545919
    136          1           0       -0.197878   -5.089847    2.511450
    137          6           0        1.521348   -4.349900    1.464368
    138          1           0        1.984952   -3.913006    2.344046
    139          6           0        2.157090   -4.223153    0.228925
    140          8           0        3.344629   -3.561699    0.165376
    141          1           0        3.536249   -3.362343   -0.785010
    142          6           0        1.567797   -4.774316   -0.911610
    143          1           0        2.052838   -4.673108   -1.878655
    144          6           0        0.344144   -5.428468   -0.811932
    145          1           0       -0.100763   -5.821985   -1.722231
    146          1           0       -6.721050    0.493192    4.053788
    147          1           0       -6.369686   -1.031806    3.222328
    148          1           0       -8.048625   -0.589617    3.599676
    149          1           0       -4.653796   -3.657862   -1.645167
    150          1           0       -3.504526   -4.110463   -2.931586
    151          1           0       -4.859543   -3.006094   -3.295714
    152          1           0        0.189796    5.726918    0.621220
    153          1           0       -0.760175    6.678745    1.778822
    154          1           0       -0.798413    7.077768    0.049111
    155          1           0        2.807991    6.216989   -3.539329
    156          1           0        3.751704    7.251158   -2.457687
    157          1           0        2.228408    7.845655   -3.145916
    158          6           0        6.899968   -0.878608    0.823755
    159          1           0        5.249387   -2.183351    1.247180
    160          1           0        7.981621   -0.931953    0.646755
    161          1           0        6.731546   -0.214853    1.680323
    162          1           0        6.436293   -0.415739   -0.053411
    163          1           0       -2.343449   -5.824517   -1.540772
    164          1           0       -2.760816   -4.567484   -0.379165
    165          1           0       -3.661294   -6.100571   -0.388888
    166          1           0        7.560345    0.384058   -2.770212
    167          1           0        6.755425   -0.631440   -3.979728
    168          1           0        6.668885   -1.056084   -2.266007
    169          1           0       -5.403068   -2.712488    1.529938
    170          1           0       -4.733034   -3.566361    2.931792
    171          1           0       -4.704354   -4.329269    1.329751
 ---------------------------------------------------------------------
 Rotational constants (GHZ):           0.0311517           0.0234245           0.0183404
 Leave Link  202 at Fri Apr  1 18:59:30 2022, MaxMem=  4294967296 cpu:               0.6 elap:               0.0
 (Enter /share/apps/g16/l301.exe)
 Standard basis: 6-311++G(d,p) (5D, 7F)
 Ernie: Thresh=  0.10000D-02 Tol=  0.10000D-05 Strict=F.
 There are  2501 symmetry adapted cartesian basis functions of A   symmetry.
 There are  2420 symmetry adapted basis functions of A   symmetry.
  2420 basis functions,  3740 primitive gaussians,  2501 cartesian basis functions
   302 alpha electrons      302 beta electrons
       nuclear repulsion energy     16526.5699151482 Hartrees.
 IExCor= 1009 DFT=T Ex+Corr=PBE1PBE ExCW=0 ScaHFX=  0.250000
 ScaDFX=  0.750000  0.750000  1.000000  1.000000 ScalE2=  1.000000  1.000000
 IRadAn=      5 IRanWt=     -1 IRanGd=            0 ICorTp=0 IEmpDi=  4
 NAtoms=  171 NActive=  171 NUniq=  171 SFac= 1.00D+00 NAtFMM=   60 NAOKFM=T Big=T
 Integral buffers will be    131072 words long.
 Raffenetti 2 integral format.
 Two-electron integral symmetry is turned on.
 Using the following non-standard input for PCM:
 eps=4.0
 --- end of non-standard input.
 ------------------------------------------------------------------------------
 Polarizable Continuum Model (PCM)
 =================================
 Model                : C-PCM.
 Atomic radii         : UFF (Universal Force Field).
 Polarization charges : Total charges.
 Charge compensation  : None.
 Solution method      : On-the-fly selection.
 Cavity type          : Scaled VdW (van der Waals Surface) (Alpha=1.100).
 Cavity algorithm     : GePol (No added spheres)
                        Default sphere list used, NSphG=  171.
                        Lebedev-Laikov grids with approx.  5.0 points / Ang**2.
                        Smoothing algorithm: York/Karplus (Gamma=1.0000).
                        Polarization charges: spherical gaussians, with
                                              point-specific exponents (IZeta= 3).
                        Self-potential: point-specific (ISelfS= 7).
                        Self-field    : sphere-specific E.n sum rule (ISelfD= 2).
 Solvent              : Water, Eps=   4.000000 Eps(inf)=   1.777849
 ------------------------------------------------------------------------------
 GePol: Number of generator spheres                  =     171
 GePol: Total number of spheres                      =     171
 GePol: Number of exposed spheres                    =     171 (100.00%)
 GePol: Number of points                             =    8754
 GePol: Average weight of points                     =       0.12
 GePol: Minimum weight of points                     =   0.10D-11
 GePol: Maximum weight of points                     =    0.20577
 GePol: Number of points with low weight             =     782
 GePol: Fraction of low-weight points (<1% of avg)   =       8.93%
 GePol: Cavity surface area                          =   1057.321 Ang**2
 GePol: Cavity volume                                =   1576.543 Ang**3
 Leave Link  301 at Fri Apr  1 18:59:30 2022, MaxMem=  4294967296 cpu:               3.5 elap:               0.1
 (Enter /share/apps/g16/l302.exe)
 NPDir=0 NMtPBC=     1 NCelOv=     1 NCel=       1 NClECP=     1 NCelD=      1
         NCelK=      1 NCelE2=     1 NClLst=     1 CellRange=     0.0.
 One-electron integrals computed using PRISM.
 One-electron integral symmetry used in STVInt
 NBasis=  2420 RedAO= T EigKep=  1.06D-06  NBF=  2420
 NBsUse=  2376 1.00D-06 EigRej=  9.70D-07 NBFU=  2376
 Precomputing XC quadrature grid using
 IXCGrd= 4 IRadAn=           5 IRanWt=          -1 IRanGd=           0 AccXCQ= 0.00D+00.
 Generated NRdTot=       0 NPtTot=           0 NUsed=           0 NTot=          32
 NSgBfM=  2098  2083  2092  2098  2098 MxSgAt=   171 MxSgA2=   171.
 Leave Link  302 at Fri Apr  1 18:59:49 2022, MaxMem=  4294967296 cpu:            1152.4 elap:              18.0
 (Enter /share/apps/g16/l303.exe)
 DipDrv:  MaxL=1.
 Leave Link  303 at Fri Apr  1 18:59:50 2022, MaxMem=  4294967296 cpu:              51.6 elap:               1.0
 (Enter /share/apps/g16/l401.exe)
 ExpMin= 3.60D-02 ExpMax= 9.34D+04 ExpMxC= 3.17D+03 IAcc=3 IRadAn=         5 AccDes= 0.00D+00
 Harris functional with IExCor= 1009 and IRadAn=       5 diagonalized for initial guess.
 HarFok:  IExCor= 1009 AccDes= 0.00D+00 IRadAn=         5 IDoV= 1 UseB2=F ITyADJ=14
 ICtDFT=  3500011 ScaDFX=  1.000000  1.000000  1.000000  1.000000
 FoFCou: FMM=F IPFlag=           0 FMFlag=      100000 FMFlg1=        2001
         NFxFlg=           0 DoJE=T BraDBF=F KetDBF=T FulRan=T
         wScrn=  0.000000 ICntrl=       500 IOpCl=  0 I1Cent=   200000004 NGrid=           0
         NMat0=    1 NMatS0=      1 NMatT0=    0 NMatD0=    1 NMtDS0=    0 NMtDT0=    0
 Petite list used in FoFCou.
 Harris En= -3821.34195781518    
 JPrj=0 DoOrth=F DoCkMO=F.
 Leave Link  401 at Fri Apr  1 19:00:23 2022, MaxMem=  4294967296 cpu:            2110.9 elap:              33.1
 (Enter /share/apps/g16/l502.exe)
 Integral symmetry usage will be decided dynamically.
 Closed shell SCF:
 Using DIIS extrapolation, IDIIS=  1040.
 NGot=  4294967296 LenX=  4282273394 LenY=  4276015892
 Requested convergence on RMS density matrix=1.00D-08 within  32 cycles.
 Requested convergence on MAX density matrix=1.00D-06.
 Requested convergence on             energy=1.00D-06.
 No special actions if energy rises.
 Fock matrices will be formed incrementally for  20 cycles.

 Cycle   1  Pass 1  IDiag  1:
 FoFJK:  IHMeth= 1 ICntrl=       0 DoSepK=F KAlg= 0 I1Cent=           0 FoldK=F
 IRaf= 760000000 NMat=       1 IRICut=       1 DoRegI=T DoRafI=F ISym2E= 0 IDoP0=0 IntGTp=1.
 FoFCou: FMM=T IPFlag=           0 FMFlag=      100000 FMFlg1=        2001
         NFxFlg=           0 DoJE=F BraDBF=F KetDBF=F FulRan=T
         wScrn=  0.000000 ICntrl=         0 IOpCl=  0 I1Cent=           0 NGrid=           0
         NMat0=    1 NMatS0=      1 NMatT0=    0 NMatD0=    1 NMtDS0=    0 NMtDT0=    0
 Symmetry not used in FoFCou.
 FMM levels:  10  Number of levels for PrismC:   9
 Inv3:  Mode=1 IEnd=   229897548.
 Iteration    1 A*A^-1 deviation from unit magnitude is 3.33D-14 for   3132.
 Iteration    1 A*A^-1 deviation from orthogonality  is 7.28D-15 for   6650   4339.
 Iteration    1 A^-1*A deviation from unit magnitude is 3.33D-14 for   3132.
 Iteration    1 A^-1*A deviation from orthogonality  is 7.04D-15 for   8155   1079.
 E= -3818.09360180916    
 DIIS: error= 1.11D-02 at cycle   1 NSaved=   1.
 NSaved= 1 IEnMin= 1 EnMin= -3818.09360180916     IErMin= 1 ErrMin= 1.11D-02
 ErrMax= 1.11D-02  0.00D+00 EMaxC= 1.00D-01 BMatC= 2.45D+00 BMatP= 2.45D+00
 IDIUse=3 WtCom= 8.89D-01 WtEn= 1.11D-01
 Coeff-Com:  0.100D+01
 Coeff-En:   0.100D+01
 Coeff:      0.100D+01
 Gap=     0.201 Goal=   None    Shift=    0.000
 GapD=    0.201 DampG=1.000 DampE=0.500 DampFc=0.5000 IDamp=-1.
 Damping current iteration by 5.00D-01
 RMSDP=2.26D-02 MaxDP=5.29D+00              OVMax= 2.29D-01

 Cycle   2  Pass 1  IDiag  1:
 RMSU=  1.12D-02    CP:  9.65D-01
 E= -3818.97071441760     Delta-E=       -0.877112608447 Rises=F Damp=T
 DIIS: error= 6.20D-03 at cycle   2 NSaved=   2.
 NSaved= 2 IEnMin= 2 EnMin= -3818.97071441760     IErMin= 2 ErrMin= 6.20D-03
 ErrMax= 6.20D-03  0.00D+00 EMaxC= 1.00D-01 BMatC= 2.23D-01 BMatP= 2.45D+00
 IDIUse=3 WtCom= 9.38D-01 WtEn= 6.20D-02
 Coeff-Com:  0.657D-01 0.934D+00
 Coeff-En:   0.157D+00 0.843D+00
 Coeff:      0.714D-01 0.929D+00
 Gap=     0.172 Goal=   None    Shift=    0.000
 RMSDP=1.12D-02 MaxDP=3.04D+00 DE=-8.77D-01 OVMax= 3.29D-01

 Cycle   3  Pass 1  IDiag  1:
 RMSU=  5.72D-03    CP:  8.48D-01  2.35D-01
 E= -3819.92560107504     Delta-E=       -0.954886657441 Rises=F Damp=F
 DIIS: error= 1.07D-02 at cycle   3 NSaved=   3.
 NSaved= 3 IEnMin= 3 EnMin= -3819.92560107504     IErMin= 2 ErrMin= 6.20D-03
 ErrMax= 1.07D-02  0.00D+00 EMaxC= 1.00D-01 BMatC= 3.34D-01 BMatP= 2.23D-01
 IDIUse=2 WtCom= 0.00D+00 WtEn= 1.00D+00
 Coeff-En:   0.000D+00 0.000D+00 0.100D+01
 Coeff:      0.000D+00 0.000D+00 0.100D+01
 Gap=     0.149 Goal=   None    Shift=    0.000
 RMSDP=1.99D-02 MaxDP=3.73D+00 DE=-9.55D-01 OVMax= 4.42D-01

 Cycle   4  Pass 1  IDiag  1:
 RMSU=  9.25D-03    CP:  9.77D-01  1.63D+00 -1.53D-01
 E= -3818.05767894874     Delta-E=        1.867922126305 Rises=F Damp=F
 DIIS: error= 3.31D-02 at cycle   4 NSaved=   4.
 NSaved= 4 IEnMin= 3 EnMin= -3819.92560107504     IErMin= 2 ErrMin= 6.20D-03
 ErrMax= 3.31D-02  0.00D+00 EMaxC= 1.00D-01 BMatC= 2.42D+00 BMatP= 2.23D-01
 IDIUse=2 WtCom= 0.00D+00 WtEn= 1.00D+00
 Coeff-En:   0.000D+00 0.000D+00 0.823D+00 0.177D+00
 Coeff:      0.000D+00 0.000D+00 0.823D+00 0.177D+00
 Gap=     0.126 Goal=   None    Shift=    0.000
 RMSDP=1.09D-02 MaxDP=2.63D+00 DE= 1.87D+00 OVMax= 3.67D-01

 Cycle   5  Pass 1  IDiag  1:
 RMSU=  3.42D-03    CP:  8.76D-01  9.85D-01  2.43D-01  3.63D-01
 E= -3820.04221503251     Delta-E=       -1.984536083768 Rises=F Damp=F
 DIIS: error= 8.76D-03 at cycle   5 NSaved=   5.
 NSaved= 5 IEnMin= 5 EnMin= -3820.04221503251     IErMin= 2 ErrMin= 6.20D-03
 ErrMax= 8.76D-03  0.00D+00 EMaxC= 1.00D-01 BMatC= 2.09D-01 BMatP= 2.23D-01
 IDIUse=3 WtCom= 9.12D-01 WtEn= 8.76D-02
 Coeff-Com:  0.606D-02 0.161D-01 0.401D+00-0.338D-01 0.610D+00
 Coeff-En:   0.000D+00 0.000D+00 0.410D+00 0.000D+00 0.590D+00
 Coeff:      0.553D-02 0.147D-01 0.402D+00-0.308D-01 0.609D+00
 Gap=     0.125 Goal=   None    Shift=    0.000
 RMSDP=4.30D-03 MaxDP=9.68D-01 DE=-1.98D+00 OVMax= 8.01D-02

 Cycle   6  Pass 1  IDiag  1:
 RMSU=  1.08D-03    CP:  8.53D-01  6.89D-01  5.39D-01  1.94D-01  8.38D-01
 E= -3820.21996476191     Delta-E=       -0.177749729406 Rises=F Damp=F
 DIIS: error= 8.88D-04 at cycle   6 NSaved=   6.
 NSaved= 6 IEnMin= 6 EnMin= -3820.21996476191     IErMin= 6 ErrMin= 8.88D-04
 ErrMax= 8.88D-04  0.00D+00 EMaxC= 1.00D-01 BMatC= 5.41D-03 BMatP= 2.09D-01
 IDIUse=3 WtCom= 9.91D-01 WtEn= 8.88D-03
 Coeff-Com:  0.225D-02 0.985D-03 0.185D+00-0.527D-01 0.402D+00 0.463D+00
 Coeff-En:   0.000D+00 0.000D+00 0.000D+00 0.000D+00 0.000D+00 0.100D+01
 Coeff:      0.223D-02 0.976D-03 0.183D+00-0.522D-01 0.398D+00 0.468D+00
 Gap=     0.131 Goal=   None    Shift=    0.000
 RMSDP=5.62D-04 MaxDP=9.12D-02 DE=-1.78D-01 OVMax= 2.08D-02

 Cycle   7  Pass 1  IDiag  1:
 RMSU=  2.43D-04    CP:  8.49D-01  6.79D-01  5.32D-01  1.84D-01  8.45D-01
                    CP:  5.75D-01
 E= -3820.22501609571     Delta-E=       -0.005051333792 Rises=F Damp=F
 DIIS: error= 1.93D-04 at cycle   7 NSaved=   7.
 NSaved= 7 IEnMin= 7 EnMin= -3820.22501609571     IErMin= 7 ErrMin= 1.93D-04
 ErrMax= 1.93D-04  0.00D+00 EMaxC= 1.00D-01 BMatC= 1.72D-04 BMatP= 5.41D-03
 IDIUse=3 WtCom= 9.98D-01 WtEn= 1.93D-03
 Coeff-Com:  0.954D-03-0.173D-02 0.523D-01-0.152D-01 0.103D+00 0.161D+00
 Coeff-Com:  0.699D+00
 Coeff-En:   0.000D+00 0.000D+00 0.000D+00 0.000D+00 0.000D+00 0.000D+00
 Coeff-En:   0.100D+01
 Coeff:      0.952D-03-0.173D-02 0.522D-01-0.151D-01 0.103D+00 0.161D+00
 Coeff:      0.700D+00
 Gap=     0.130 Goal=   None    Shift=    0.000
 RMSDP=1.37D-04 MaxDP=5.01D-02 DE=-5.05D-03 OVMax= 2.80D-03

 Cycle   8  Pass 1  IDiag  1:
 RMSU=  1.19D-04    CP:  8.48D-01  6.75D-01  5.33D-01  1.81D-01  8.50D-01
                    CP:  5.79D-01  8.60D-01
 E= -3820.22510275337     Delta-E=       -0.000086657663 Rises=F Damp=F
 DIIS: error= 9.08D-05 at cycle   8 NSaved=   8.
 NSaved= 8 IEnMin= 8 EnMin= -3820.22510275337     IErMin= 8 ErrMin= 9.08D-05
 ErrMax= 9.08D-05  0.00D+00 EMaxC= 1.00D-01 BMatC= 7.45D-05 BMatP= 1.72D-04
 IDIUse=1 WtCom= 1.00D+00 WtEn= 0.00D+00
 Coeff-Com:  0.292D-03-0.942D-03 0.529D-02-0.150D-02 0.788D-03 0.262D-01
 Coeff-Com:  0.469D+00 0.501D+00
 Coeff:      0.292D-03-0.942D-03 0.529D-02-0.150D-02 0.788D-03 0.262D-01
 Coeff:      0.469D+00 0.501D+00
 Gap=     0.130 Goal=   None    Shift=    0.000
 RMSDP=7.33D-05 MaxDP=2.12D-02 DE=-8.67D-05 OVMax= 1.88D-03

 Cycle   9  Pass 1  IDiag  1:
 RMSU=  3.13D-05    CP:  8.48D-01  6.73D-01  5.37D-01  1.81D-01  8.46D-01
                    CP:  5.84D-01  9.28D-01  5.57D-01
 E= -3820.22517440416     Delta-E=       -0.000071650793 Rises=F Damp=F
 DIIS: error= 2.71D-05 at cycle   9 NSaved=   9.
 NSaved= 9 IEnMin= 9 EnMin= -3820.22517440416     IErMin= 9 ErrMin= 2.71D-05
 ErrMax= 2.71D-05  0.00D+00 EMaxC= 1.00D-01 BMatC= 3.68D-06 BMatP= 7.45D-05
 IDIUse=1 WtCom= 1.00D+00 WtEn= 0.00D+00
 Coeff-Com:  0.137D-03-0.603D-03 0.283D-03 0.168D-03-0.520D-02 0.807D-02
 Coeff-Com:  0.228D+00 0.286D+00 0.483D+00
 Coeff:      0.137D-03-0.603D-03 0.283D-03 0.168D-03-0.520D-02 0.807D-02
 Coeff:      0.228D+00 0.286D+00 0.483D+00
 Gap=     0.130 Goal=   None    Shift=    0.000
 RMSDP=1.85D-05 MaxDP=3.25D-03 DE=-7.17D-05 OVMax= 4.11D-04

 Cycle  10  Pass 1  IDiag  1:
 RMSU=  1.27D-05    CP:  8.48D-01  6.74D-01  5.37D-01  1.81D-01  8.47D-01
                    CP:  5.86D-01  9.23D-01  5.97D-01  7.24D-01
 E= -3820.22517766645     Delta-E=       -0.000003262292 Rises=F Damp=F
 DIIS: error= 6.38D-06 at cycle  10 NSaved=  10.
 NSaved=10 IEnMin=10 EnMin= -3820.22517766645     IErMin=10 ErrMin= 6.38D-06
 ErrMax= 6.38D-06  0.00D+00 EMaxC= 1.00D-01 BMatC= 4.15D-07 BMatP= 3.68D-06
 IDIUse=1 WtCom= 1.00D+00 WtEn= 0.00D+00
 Coeff-Com:  0.253D-04-0.145D-03-0.592D-03 0.215D-03-0.270D-02 0.314D-02
 Coeff-Com:  0.682D-01 0.967D-01 0.271D+00 0.564D+00
 Coeff:      0.253D-04-0.145D-03-0.592D-03 0.215D-03-0.270D-02 0.314D-02
 Coeff:      0.682D-01 0.967D-01 0.271D+00 0.564D+00
 Gap=     0.130 Goal=   None    Shift=    0.000
 RMSDP=6.60D-06 MaxDP=1.15D-03 DE=-3.26D-06 OVMax= 1.95D-04

 Cycle  11  Pass 1  IDiag  1:
 RMSU=  3.70D-06    CP:  8.48D-01  6.74D-01  5.36D-01  1.81D-01  8.47D-01
                    CP:  5.88D-01  9.25D-01  5.89D-01  7.27D-01  8.51D-01
 E= -3820.22517806029     Delta-E=       -0.000000393833 Rises=F Damp=F
 DIIS: error= 2.19D-06 at cycle  11 NSaved=  11.
 NSaved=11 IEnMin=11 EnMin= -3820.22517806029     IErMin=11 ErrMin= 2.19D-06
 ErrMax= 2.19D-06  0.00D+00 EMaxC= 1.00D-01 BMatC= 4.83D-08 BMatP= 4.15D-07
 IDIUse=1 WtCom= 1.00D+00 WtEn= 0.00D+00
 Coeff-Com: -0.456D-05-0.149D-04-0.468D-03 0.108D-03-0.107D-02 0.137D-02
 Coeff-Com:  0.164D-01 0.268D-01 0.101D+00 0.300D+00 0.556D+00
 Coeff:     -0.456D-05-0.149D-04-0.468D-03 0.108D-03-0.107D-02 0.137D-02
 Coeff:      0.164D-01 0.268D-01 0.101D+00 0.300D+00 0.556D+00
 Gap=     0.130 Goal=   None    Shift=    0.000
 RMSDP=1.91D-06 MaxDP=2.28D-04 DE=-3.94D-07 OVMax= 6.45D-05

 Cycle  12  Pass 1  IDiag  1:
 RMSU=  1.47D-06    CP:  8.48D-01  6.74D-01  5.36D-01  1.81D-01  8.47D-01
                    CP:  5.89D-01  9.23D-01  5.93D-01  7.26D-01  8.94D-01
                    CP:  9.33D-01
 E= -3820.22517809987     Delta-E=       -0.000000039581 Rises=F Damp=F
 DIIS: error= 1.14D-06 at cycle  12 NSaved=  12.
 NSaved=12 IEnMin=12 EnMin= -3820.22517809987     IErMin=12 ErrMin= 1.14D-06
 ErrMax= 1.14D-06  0.00D+00 EMaxC= 1.00D-01 BMatC= 7.59D-09 BMatP= 4.83D-08
 IDIUse=1 WtCom= 1.00D+00 WtEn= 0.00D+00
 Coeff-Com: -0.783D-05 0.154D-04-0.193D-03 0.281D-04-0.170D-03 0.382D-03
 Coeff-Com: -0.139D-02-0.161D-03 0.978D-02 0.558D-01 0.296D+00 0.640D+00
 Coeff:     -0.783D-05 0.154D-04-0.193D-03 0.281D-04-0.170D-03 0.382D-03
 Coeff:     -0.139D-02-0.161D-03 0.978D-02 0.558D-01 0.296D+00 0.640D+00
 Gap=     0.130 Goal=   None    Shift=    0.000
 RMSDP=8.94D-07 MaxDP=2.06D-04 DE=-3.96D-08 OVMax= 2.15D-05

 Cycle  13  Pass 1  IDiag  1:
 RMSU=  5.76D-07    CP:  8.48D-01  6.74D-01  5.36D-01  1.81D-01  8.47D-01
                    CP:  5.89D-01  9.24D-01  5.92D-01  7.32D-01  8.92D-01
                    CP:  9.44D-01  8.50D-01
 E= -3820.22517811134     Delta-E=       -0.000000011474 Rises=F Damp=F
 DIIS: error= 3.99D-07 at cycle  13 NSaved=  13.
 NSaved=13 IEnMin=13 EnMin= -3820.22517811134     IErMin=13 ErrMin= 3.99D-07
 ErrMax= 3.99D-07  0.00D+00 EMaxC= 1.00D-01 BMatC= 1.20D-09 BMatP= 7.59D-09
 IDIUse=1 WtCom= 1.00D+00 WtEn= 0.00D+00
 Coeff-Com: -0.435D-05 0.111D-04-0.468D-04 0.548D-06 0.665D-04 0.465D-04
 Coeff-Com: -0.334D-02-0.412D-02-0.107D-01-0.184D-01 0.847D-01 0.373D+00
 Coeff-Com:  0.579D+00
 Coeff:     -0.435D-05 0.111D-04-0.468D-04 0.548D-06 0.665D-04 0.465D-04
 Coeff:     -0.334D-02-0.412D-02-0.107D-01-0.184D-01 0.847D-01 0.373D+00
 Coeff:      0.579D+00
 Gap=     0.130 Goal=   None    Shift=    0.000
 RMSDP=5.37D-07 MaxDP=1.49D-04 DE=-1.15D-08 OVMax= 7.60D-06

 Cycle  14  Pass 1  IDiag  1:
 RMSU=  1.97D-07    CP:  8.48D-01  6.74D-01  5.36D-01  1.81D-01  8.47D-01
                    CP:  5.89D-01  9.23D-01  5.93D-01  7.33D-01  9.07D-01
                    CP:  9.72D-01  8.95D-01  8.99D-01
 E= -3820.22517810838     Delta-E=        0.000000002958 Rises=F Damp=F
 DIIS: error= 9.40D-08 at cycle  14 NSaved=  14.
 NSaved=14 IEnMin=13 EnMin= -3820.22517811134     IErMin=14 ErrMin= 9.40D-08
 ErrMax= 9.40D-08  0.00D+00 EMaxC= 1.00D-01 BMatC= 1.02D-10 BMatP= 1.20D-09
 IDIUse=1 WtCom= 1.00D+00 WtEn= 0.00D+00
 Coeff-Com: -0.128D-05 0.344D-05-0.364D-05-0.210D-05 0.483D-04-0.157D-04
 Coeff-Com: -0.149D-02-0.192D-02-0.659D-02-0.172D-01 0.854D-02 0.120D+00
 Coeff-Com:  0.304D+00 0.594D+00
 Coeff:     -0.128D-05 0.344D-05-0.364D-05-0.210D-05 0.483D-04-0.157D-04
 Coeff:     -0.149D-02-0.192D-02-0.659D-02-0.172D-01 0.854D-02 0.120D+00
 Coeff:      0.304D+00 0.594D+00
 Gap=     0.130 Goal=   None    Shift=    0.000
 RMSDP=9.37D-08 MaxDP=1.23D-05 DE= 2.96D-09 OVMax= 3.33D-06

 Cycle  15  Pass 1  IDiag  1:
 RMSU=  5.51D-08    CP:  8.48D-01  6.74D-01  5.36D-01  1.81D-01  8.47D-01
                    CP:  5.89D-01  9.23D-01  5.93D-01  7.32D-01  9.06D-01
                    CP:  9.83D-01  9.15D-01  9.17D-01  8.98D-01
 E= -3820.22517811134     Delta-E=       -0.000000002958 Rises=F Damp=F
 DIIS: error= 4.02D-08 at cycle  15 NSaved=  15.
 NSaved=15 IEnMin=13 EnMin= -3820.22517811134     IErMin=15 ErrMin= 4.02D-08
 ErrMax= 4.02D-08  0.00D+00 EMaxC= 1.00D-01 BMatC= 1.23D-11 BMatP= 1.02D-10
 IDIUse=1 WtCom= 1.00D+00 WtEn= 0.00D+00
 Coeff-Com: -0.200D-06 0.643D-06 0.293D-05-0.134D-05 0.180D-04-0.978D-05
 Coeff-Com: -0.420D-03-0.522D-03-0.230D-02-0.728D-02-0.399D-02 0.244D-01
 Coeff-Com:  0.947D-01 0.309D+00 0.586D+00
 Coeff:     -0.200D-06 0.643D-06 0.293D-05-0.134D-05 0.180D-04-0.978D-05
 Coeff:     -0.420D-03-0.522D-03-0.230D-02-0.728D-02-0.399D-02 0.244D-01
 Coeff:      0.947D-01 0.309D+00 0.586D+00
 Gap=     0.130 Goal=   None    Shift=    0.000
 RMSDP=3.15D-08 MaxDP=4.12D-06 DE=-2.96D-09 OVMax= 1.56D-06

 Cycle  16  Pass 1  IDiag  1:
 RMSU=  2.19D-08    CP:  8.48D-01  6.74D-01  5.36D-01  1.81D-01  8.47D-01
                    CP:  5.89D-01  9.23D-01  5.93D-01  7.32D-01  9.06D-01
                    CP:  9.85D-01  9.19D-01  9.30D-01  9.14D-01  8.41D-01
 E= -3820.22517811082     Delta-E=        0.000000000520 Rises=F Damp=F
 DIIS: error= 1.44D-08 at cycle  16 NSaved=  16.
 NSaved=16 IEnMin=13 EnMin= -3820.22517811134     IErMin=16 ErrMin= 1.44D-08
 ErrMax= 1.44D-08  0.00D+00 EMaxC= 1.00D-01 BMatC= 2.19D-12 BMatP= 1.23D-11
 IDIUse=1 WtCom= 1.00D+00 WtEn= 0.00D+00
 Coeff-Com:  0.131D-06-0.277D-06 0.317D-05-0.468D-06 0.365D-05-0.201D-05
 Coeff-Com: -0.848D-05 0.133D-04-0.293D-03-0.158D-02-0.383D-02-0.554D-02
 Coeff-Com:  0.310D-02 0.779D-01 0.337D+00 0.594D+00
 Coeff:      0.131D-06-0.277D-06 0.317D-05-0.468D-06 0.365D-05-0.201D-05
 Coeff:     -0.848D-05 0.133D-04-0.293D-03-0.158D-02-0.383D-02-0.554D-02
 Coeff:      0.310D-02 0.779D-01 0.337D+00 0.594D+00
 Gap=     0.130 Goal=   None    Shift=    0.000
 RMSDP=1.41D-08 MaxDP=4.02D-06 DE= 5.20D-10 OVMax= 4.00D-07

 Cycle  17  Pass 1  IDiag  1:
 RMSU=  9.05D-09    CP:  8.48D-01  6.74D-01  5.36D-01  1.81D-01  8.47D-01
                    CP:  5.89D-01  9.23D-01  5.93D-01  7.32D-01  9.06D-01
                    CP:  9.85D-01  9.20D-01  9.39D-01  9.31D-01  8.99D-01
                    CP:  7.99D-01
 E= -3820.22517811338     Delta-E=       -0.000000002557 Rises=F Damp=F
 DIIS: error= 4.13D-09 at cycle  17 NSaved=  17.
 NSaved=17 IEnMin=17 EnMin= -3820.22517811338     IErMin=17 ErrMin= 4.13D-09
 ErrMax= 4.13D-09  0.00D+00 EMaxC= 1.00D-01 BMatC= 2.37D-13 BMatP= 2.19D-12
 IDIUse=1 WtCom= 1.00D+00 WtEn= 0.00D+00
 Coeff-Com:  0.898D-07-0.184D-06 0.979D-06-0.434D-07-0.101D-05 0.707D-06
 Coeff-Com:  0.525D-04 0.850D-04 0.178D-03 0.201D-03-0.115D-02-0.538D-02
 Coeff-Com: -0.109D-01-0.119D-02 0.101D+00 0.303D+00 0.615D+00
 Coeff:      0.898D-07-0.184D-06 0.979D-06-0.434D-07-0.101D-05 0.707D-06
 Coeff:      0.525D-04 0.850D-04 0.178D-03 0.201D-03-0.115D-02-0.538D-02
 Coeff:     -0.109D-01-0.119D-02 0.101D+00 0.303D+00 0.615D+00
 Gap=     0.130 Goal=   None    Shift=    0.000
 RMSDP=5.26D-09 MaxDP=5.97D-07 DE=-2.56D-09 OVMax= 2.77D-07

 Error on total polarization charges =  0.02351
 SCF Done:  E(RPBE1PBE) =  -3820.22517811     A.U. after   17 cycles
            NFock= 17  Conv=0.53D-08     -V/T= 2.0040
 KE= 3.805005915024D+03 PE=-4.196332454712D+04 EE= 1.781152353883D+04
 Leave Link  502 at Fri Apr  1 20:17:47 2022, MaxMem=  4294967296 cpu:          294674.2 elap:            4643.3
 (Enter /share/apps/g16/l508.exe)
 QCSCF skips out because SCF is already converged.
 Leave Link  508 at Fri Apr  1 20:17:47 2022, MaxMem=  4294967296 cpu:               0.3 elap:               0.0
 (Enter /share/apps/g16/l601.exe)
 Copying SCF densities to generalized density rwf, IOpCl= 0 IROHF=0.
 Hyperfine terms turned off by default for NAtoms > 100.

 **********************************************************************

            Population analysis using the SCF Density.

 **********************************************************************

 Orbital symmetries:
       Occupied  (A) (A) (A) (A) (A) (A) (A) (A) (A) (A) (A) (A)
                 (A) (A) (A) (A) (A) (A) (A) (A) (A) (A) (A) (A)
                 (A) (A) (A) (A) (A) (A) (A) (A) (A) (A) (A) (A)
                 (A) (A) (A) (A) (A) (A) (A) (A) (A) (A) (A) (A)
                 (A) (A) (A) (A) (A) (A) (A) (A) (A) (A) (A) (A)
                 (A) (A) (A) (A) (A) (A) (A) (A) (A) (A) (A) (A)
                 (A) (A) (A) (A) (A) (A) (A) (A) (A) (A) (A) (A)
                 (A) (A) (A) (A) (A) (A) (A) (A) (A) (A) (A) (A)
                 (A) (A) (A) (A) (A) (A) (A) (A) (A) (A) (A) (A)
                 (A) (A) (A) (A) (A) (A) (A) (A) (A) (A) (A) (A)
                 (A) (A) (A) (A) (A) (A) (A) (A) (A) (A) (A) (A)
                 (A) (A) (A) (A) (A) (A) (A) (A) (A) (A) (A) (A)
                 (A) (A) (A) (A) (A) (A) (A) (A) (A) (A) (A) (A)
                 (A) (A) (A) (A) (A) (A) (A) (A) (A) (A) (A) (A)
                 (A) (A) (A) (A) (A) (A) (A) (A) (A) (A) (A) (A)
                 (A) (A) (A) (A) (A) (A) (A) (A) (A) (A) (A) (A)
                 (A) (A) (A) (A) (A) (A) (A) (A) (A) (A) (A) (A)
                 (A) (A) (A) (A) (A) (A) (A) (A) (A) (A) (A) (A)
                 (A) (A) (A) (A) (A) (A) (A) (A) (A) (A) (A) (A)
                 (A) (A) (A) (A) (A) (A) (A) (A) (A) (A) (A) (A)
                 (A) (A) (A) (A) (A) (A) (A) (A) (A) (A) (A) (A)
                 (A) (A) (A) (A) (A) (A) (A) (A) (A) (A) (A) (A)
                 (A) (A) (A) (A) (A) (A) (A) (A) (A) (A) (A) (A)
                 (A) (A) (A) (A) (A) (A) (A) (A) (A) (A) (A) (A)
                 (A) (A) (A) (A) (A) (A) (A) (A) (A) (A) (A) (A)
                 (A) (A)
       Virtual   (A) (A) (A) (A) (A) (A) (A) (A) (A) (A) (A) (A)
                 (A) (A) (A) (A) (A) (A) (A) (A) (A) (A) (A) (A)
                 (A) (A) (A) (A) (A) (A) (A) (A) (A) (A) (A) (A)
                 (A) (A) (A) (A) (A) (A) (A) (A) (A) (A) (A) (A)
                 (A) (A) (A) (A) (A) (A) (A) (A) (A) (A) (A) (A)
                 (A) (A) (A) (A) (A) (A) (A) (A) (A) (A) (A) (A)
                 (A) (A) (A) (A) (A) (A) (A) (A) (A) (A) (A) (A)
                 (A) (A) (A) (A) (A) (A) (A) (A) (A) (A) (A) (A)
                 (A) (A) (A) (A) (A) (A) (A) (A) (A) (A) (A) (A)
                 (A) (A) (A) (A) (A) (A) (A) (A) (A) (A) (A) (A)
                 (A) (A) (A) (A) (A) (A) (A) (A) (A) (A) (A) (A)
                 (A) (A) (A) (A) (A) (A) (A) (A) (A) (A) (A) (A)
                 (A) (A) (A) (A) (A) (A) (A) (A) (A) (A) (A) (A)
                 (A) (A) (A) (A) (A) (A) (A) (A) (A) (A) (A) (A)
                 (A) (A) (A) (A) (A) (A) (A) (A) (A) (A) (A) (A)
                 (A) (A) (A) (A) (A) (A) (A) (A) (A) (A) (A) (A)
                 (A) (A) (A) (A) (A) (A) (A) (A) (A) (A) (A) (A)
                 (A) (A) (A) (A) (A) (A) (A) (A) (A) (A) (A) (A)
                 (A) (A) (A) (A) (A) (A) (A) (A) (A) (A) (A) (A)
                 (A) (A) (A) (A) (A) (A) (A) (A) (A) (A) (A) (A)
                 (A) (A) (A) (A) (A) (A) (A) (A) (A) (A) (A) (A)
                 (A) (A) (A) (A) (A) (A) (A) (A) (A) (A) (A) (A)
                 (A) (A) (A) (A) (A) (A) (A) (A) (A) (A) (A) (A)
                 (A) (A) (A) (A) (A) (A) (A) (A) (A) (A) (A) (A)
                 (A) (A) (A) (A) (A) (A) (A) (A) (A) (A) (A) (A)
                 (A) (A) (A) (A) (A) (A) (A) (A) (A) (A) (A) (A)
                 (A) (A) (A) (A) (A) (A) (A) (A) (A) (A) (A) (A)
                 (A) (A) (A) (A) (A) (A) (A) (A) (A) (A) (A) (A)
                 (A) (A) (A) (A) (A) (A) (A) (A) (A) (A) (A) (A)
                 (A) (A) (A) (A) (A) (A) (A) (A) (A) (A) (A) (A)
                 (A) (A) (A) (A) (A) (A) (A) (A) (A) (A) (A) (A)
                 (A) (A) (A) (A) (A) (A) (A) (A) (A) (A) (A) (A)
                 (A) (A) (A) (A) (A) (A) (A) (A) (A) (A) (A) (A)
                 (A) (A) (A) (A) (A) (A) (A) (A) (A) (A) (A) (A)
                 (A) (A) (A) (A) (A) (A) (A) (A) (A) (A) (A) (A)
                 (A) (A) (A) (A) (A) (A) (A) (A) (A) (A) (A) (A)
                 (A) (A) (A) (A) (A) (A) (A) (A) (A) (A) (A) (A)
                 (A) (A) (A) (A) (A) (A) (A) (A) (A) (A) (A) (A)
                 (A) (A) (A) (A) (A) (A) (A) (A) (A) (A) (A) (A)
                 (A) (A) (A) (A) (A) (A) (A) (A) (A) (A) (A) (A)
                 (A) (A) (A) (A) (A) (A) (A) (A) (A) (A) (A) (A)
                 (A) (A) (A) (A) (A) (A) (A) (A) (A) (A) (A) (A)
                 (A) (A) (A) (A) (A) (A) (A) (A) (A) (A) (A) (A)
                 (A) (A) (A) (A) (A) (A) (A) (A) (A) (A) (A) (A)
                 (A) (A) (A) (A) (A) (A) (A) (A) (A) (A) (A) (A)
                 (A) (A) (A) (A) (A) (A) (A) (A) (A) (A) (A) (A)
                 (A) (A) (A) (A) (A) (A) (A) (A) (A) (A) (A) (A)
                 (A) (A) (A) (A) (A) (A) (A) (A) (A) (A) (A) (A)
                 (A) (A) (A) (A) (A) (A) (A) (A) (A) (A) (A) (A)
                 (A) (A) (A) (A) (A) (A) (A) (A) (A) (A) (A) (A)
                 (A) (A) (A) (A) (A) (A) (A) (A) (A) (A) (A) (A)
                 (A) (A) (A) (A) (A) (A) (A) (A) (A) (A) (A) (A)
                 (A) (A) (A) (A) (A) (A) (A) (A) (A) (A) (A) (A)
                 (A) (A) (A) (A) (A) (A) (A) (A) (A) (A) (A) (A)
                 (A) (A) (A) (A) (A) (A) (A) (A) (A) (A) (A) (A)
                 (A) (A) (A) (A) (A) (A) (A) (A) (A) (A) (A) (A)
                 (A) (A) (A) (A) (A) (A) (A) (A) (A) (A) (A) (A)
                 (A) (A) (A) (A) (A) (A) (A) (A) (A) (A) (A) (A)
                 (A) (A) (A) (A) (A) (A) (A) (A) (A) (A) (A) (A)
                 (A) (A) (A) (A) (A) (A) (A) (A) (A) (A) (A) (A)
                 (A) (A) (A) (A) (A) (A) (A) (A) (A) (A) (A) (A)
                 (A) (A) (A) (A) (A) (A) (A) (A) (A) (A) (A) (A)
                 (A) (A) (A) (A) (A) (A) (A) (A) (A) (A) (A) (A)
                 (A) (A) (A) (A) (A) (A) (A) (A) (A) (A) (A) (A)
                 (A) (A) (A) (A) (A) (A) (A) (A) (A) (A) (A) (A)
                 (A) (A) (A) (A) (A) (A) (A) (A) (A) (A) (A) (A)
                 (A) (A) (A) (A) (A) (A) (A) (A) (A) (A) (A) (A)
                 (A) (A) (A) (A) (A) (A) (A) (A) (A) (A) (A) (A)
                 (A) (A) (A) (A) (A) (A) (A) (A) (A) (A) (A) (A)
                 (A) (A) (A) (A) (A) (A) (A) (A) (A) (A) (A) (A)
                 (A) (A) (A) (A) (A) (A) (A) (A) (A) (A) (A) (A)
                 (A) (A) (A) (A) (A) (A) (A) (A) (A) (A) (A) (A)
                 (A) (A) (A) (A) (A) (A) (A) (A) (A) (A) (A) (A)
                 (A) (A) (A) (A) (A) (A) (A) (A) (A) (A) (A) (A)
                 (A) (A) (A) (A) (A) (A) (A) (A) (A) (A) (A) (A)
                 (A) (A) (A) (A) (A) (A) (A) (A) (A) (A) (A) (A)
                 (A) (A) (A) (A) (A) (A) (A) (A) (A) (A) (A) (A)
                 (A) (A) (A) (A) (A) (A) (A) (A) (A) (A) (A) (A)
                 (A) (A) (A) (A) (A) (A) (A) (A) (A) (A) (A) (A)
                 (A) (A) (A) (A) (A) (A) (A) (A) (A) (A) (A) (A)
                 (A) (A) (A) (A) (A) (A) (A) (A) (A) (A) (A) (A)
                 (A) (A) (A) (A) (A) (A) (A) (A) (A) (A) (A) (A)
                 (A) (A) (A) (A) (A) (A) (A) (A) (A) (A) (A) (A)
                 (A) (A) (A) (A) (A) (A) (A) (A) (A) (A) (A) (A)
                 (A) (A) (A) (A) (A) (A) (A) (A) (A) (A) (A) (A)
                 (A) (A) (A) (A) (A) (A) (A) (A) (A) (A) (A) (A)
                 (A) (A) (A) (A) (A) (A) (A) (A) (A) (A) (A) (A)
                 (A) (A) (A) (A) (A) (A) (A) (A) (A) (A) (A) (A)
                 (A) (A) (A) (A) (A) (A) (A) (A) (A) (A) (A) (A)
                 (A) (A) (A) (A) (A) (A) (A) (A) (A) (A) (A) (A)
                 (A) (A) (A) (A) (A) (A) (A) (A) (A) (A) (A) (A)
                 (A) (A) (A) (A) (A) (A) (A) (A) (A) (A) (A) (A)
                 (A) (A) (A) (A) (A) (A) (A) (A) (A) (A) (A) (A)
                 (A) (A) (A) (A) (A) (A) (A) (A) (A) (A) (A) (A)
                 (A) (A) (A) (A) (A) (A) (A) (A) (A) (A) (A) (A)
                 (A) (A) (A) (A) (A) (A) (A) (A) (A) (A) (A) (A)
                 (A) (A) (A) (A) (A) (A) (A) (A) (A) (A) (A) (A)
                 (A) (A) (A) (A) (A) (A) (A) (A) (A) (A) (A) (A)
                 (A) (A) (A) (A) (A) (A) (A) (A) (A) (A) (A) (A)
                 (A) (A) (A) (A) (A) (A) (A) (A) (A) (A) (A) (A)
                 (A) (A) (A) (A) (A) (A) (A) (A) (A) (A) (A) (A)
                 (A) (A) (A) (A) (A) (A) (A) (A) (A) (A) (A) (A)
                 (A) (A) (A) (A) (A) (A) (A) (A) (A) (A) (A) (A)
                 (A) (A) (A) (A) (A) (A) (A) (A) (A) (A) (A) (A)
                 (A) (A) (A) (A) (A) (A) (A) (A) (A) (A) (A) (A)
                 (A) (A) (A) (A) (A) (A) (A) (A) (A) (A) (A) (A)
                 (A) (A) (A) (A) (A) (A) (A) (A) (A) (A) (A) (A)
                 (A) (A) (A) (A) (A) (A) (A) (A) (A) (A) (A) (A)
                 (A) (A) (A) (A) (A) (A) (A) (A) (A) (A) (A) (A)
                 (A) (A) (A) (A) (A) (A) (A) (A) (A) (A) (A) (A)
                 (A) (A) (A) (A) (A) (A) (A) (A) (A) (A) (A) (A)
                 (A) (A) (A) (A) (A) (A) (A) (A) (A) (A) (A) (A)
                 (A) (A) (A) (A) (A) (A) (A) (A) (A) (A) (A) (A)
                 (A) (A) (A) (A) (A) (A) (A) (A) (A) (A) (A) (A)
                 (A) (A) (A) (A) (A) (A) (A) (A) (A) (A) (A) (A)
                 (A) (A) (A) (A) (A) (A) (A) (A) (A) (A) (A) (A)
                 (A) (A) (A) (A) (A) (A) (A) (A) (A) (A) (A) (A)
                 (A) (A) (A) (A) (A) (A) (A) (A) (A) (A) (A) (A)
                 (A) (A) (A) (A) (A) (A) (A) (A) (A) (A) (A) (A)
                 (A) (A) (A) (A) (A) (A) (A) (A) (A) (A) (A) (A)
                 (A) (A) (A) (A) (A) (A) (A) (A) (A) (A) (A) (A)
                 (A) (A) (A) (A) (A) (A) (A) (A) (A) (A) (A) (A)
                 (A) (A) (A) (A) (A) (A) (A) (A) (A) (A) (A) (A)
                 (A) (A) (A) (A) (A) (A) (A) (A) (A) (A) (A) (A)
                 (A) (A) (A) (A) (A) (A) (A) (A) (A) (A) (A) (A)
                 (A) (A) (A) (A) (A) (A) (A) (A) (A) (A) (A) (A)
                 (A) (A) (A) (A) (A) (A) (A) (A) (A) (A) (A) (A)
                 (A) (A) (A) (A) (A) (A) (A) (A) (A) (A) (A) (A)
                 (A) (A) (A) (A) (A) (A) (A) (A) (A) (A) (A) (A)
                 (A) (A) (A) (A) (A) (A) (A) (A) (A) (A) (A) (A)
                 (A) (A) (A) (A) (A) (A) (A) (A) (A) (A) (A) (A)
                 (A) (A) (A) (A) (A) (A) (A) (A) (A) (A) (A) (A)
                 (A) (A) (A) (A) (A) (A) (A) (A) (A) (A) (A) (A)
                 (A) (A) (A) (A) (A) (A) (A) (A) (A) (A) (A) (A)
                 (A) (A) (A) (A) (A) (A) (A) (A) (A) (A) (A) (A)
                 (A) (A) (A) (A) (A) (A) (A) (A) (A) (A) (A) (A)
                 (A) (A) (A) (A) (A) (A) (A) (A) (A) (A) (A) (A)
                 (A) (A) (A) (A) (A) (A) (A) (A) (A) (A) (A) (A)
                 (A) (A) (A) (A) (A) (A) (A) (A) (A) (A) (A) (A)
                 (A) (A) (A) (A) (A) (A) (A) (A) (A) (A) (A) (A)
                 (A) (A) (A) (A) (A) (A) (A) (A) (A) (A) (A) (A)
                 (A) (A) (A) (A) (A) (A) (A) (A) (A) (A) (A) (A)
                 (A) (A) (A) (A) (A) (A) (A) (A) (A) (A) (A) (A)
                 (A) (A) (A) (A) (A) (A) (A) (A) (A) (A) (A) (A)
                 (A) (A) (A) (A) (A) (A) (A) (A) (A) (A) (A) (A)
                 (A) (A) (A) (A) (A) (A) (A) (A) (A) (A) (A) (A)
                 (A) (A) (A) (A) (A) (A) (A) (A) (A) (A) (A) (A)
                 (A) (A) (A) (A) (A) (A) (A) (A) (A) (A) (A) (A)
                 (A) (A) (A) (A) (A) (A) (A) (A) (A) (A) (A) (A)
                 (A) (A) (A) (A) (A) (A) (A) (A) (A) (A) (A) (A)
                 (A) (A) (A) (A) (A) (A) (A) (A) (A) (A) (A) (A)
                 (A) (A) (A) (A) (A) (A) (A) (A) (A) (A) (A) (A)
                 (A) (A) (A) (A) (A) (A) (A) (A) (A) (A) (A) (A)
                 (A) (A) (A) (A) (A) (A) (A) (A) (A) (A) (A) (A)
                 (A) (A) (A) (A) (A) (A) (A) (A) (A) (A) (A) (A)
                 (A) (A) (A) (A) (A) (A) (A) (A) (A) (A) (A) (A)
                 (A) (A) (A) (A) (A) (A) (A) (A) (A) (A) (A) (A)
                 (A) (A) (A) (A) (A) (A) (A) (A) (A) (A) (A) (A)
                 (A) (A) (A) (A) (A) (A) (A) (A) (A) (A) (A) (A)
                 (A) (A) (A) (A) (A) (A) (A) (A) (A) (A) (A) (A)
                 (A) (A) (A) (A) (A) (A) (A) (A) (A) (A) (A) (A)
                 (A) (A) (A) (A) (A) (A) (A) (A) (A) (A) (A) (A)
[...]
 Alpha virt. eigenvalues --    3.06902   3.07164   3.07476   3.07589   3.08126
 Alpha virt. eigenvalues --    3.08149   3.08250   3.08483   3.08656   3.09272
 Alpha virt. eigenvalues --    3.09591   3.09778   3.10118   3.10426   3.10539
 Alpha virt. eigenvalues --    3.11056   3.11570   3.11736   3.11941   3.12176
 Alpha virt. eigenvalues --    3.12491   3.12850   3.12916   3.13324   3.13380
 Alpha virt. eigenvalues --    3.13679   3.14245   3.14512   3.14888   3.15364
 Alpha virt. eigenvalues --    3.15499   3.16167   3.16467   3.16603   3.17123
 Alpha virt. eigenvalues --    3.17217   3.17826   3.17941   3.18579   3.19002
 Alpha virt. eigenvalues --    3.19426   3.19575   3.20329   3.20502   3.20863
 Alpha virt. eigenvalues --    3.21459   3.21947   3.22262   3.22681   3.23108
 Alpha virt. eigenvalues --    3.23432   3.23959   3.24244   3.24683   3.24827
 Alpha virt. eigenvalues --    3.25197   3.25287   3.25719   3.25855   3.26557
 Alpha virt. eigenvalues --    3.26790   3.27101   3.27423   3.27965   3.28687
 Alpha virt. eigenvalues --    3.29016   3.29298   3.29811   3.30177   3.30483
 Alpha virt. eigenvalues --    3.30612   3.31229   3.31472   3.32135   3.32221
 Alpha virt. eigenvalues --    3.32809   3.33285   3.33579   3.34306   3.34708
 Alpha virt. eigenvalues --    3.35270   3.35316   3.36170   3.36309   3.36897
 Alpha virt. eigenvalues --    3.37412   3.37594   3.38443   3.39068   3.39478
 Alpha virt. eigenvalues --    3.39728   3.40035   3.40959   3.41176   3.41728
 Alpha virt. eigenvalues --    3.42438   3.42816   3.43170   3.43884   3.43950
 Alpha virt. eigenvalues --    3.44373   3.44880   3.45180   3.45348   3.45571
 Alpha virt. eigenvalues --    3.46350   3.47227   3.48024   3.48366   3.48984
 Alpha virt. eigenvalues --    3.50983   3.51602   3.52043   3.53183   3.53646
 Alpha virt. eigenvalues --    3.53975   3.54383   3.54459   3.55293   3.55873
 Alpha virt. eigenvalues --    3.57689   3.58015   3.58510   3.58820   3.59407
 Alpha virt. eigenvalues --    3.60046   3.62486   3.63108   3.63270   3.63825
 Alpha virt. eigenvalues --    3.64255   3.64873   3.65416   3.65735   3.65794
 Alpha virt. eigenvalues --    3.66470   3.66616   3.68256   3.68863   3.69720
 Alpha virt. eigenvalues --    3.70555   3.70974   3.72470   3.72863   3.74328
 Alpha virt. eigenvalues --    3.74978   3.75351   3.76520   3.76854   3.77418
 Alpha virt. eigenvalues --    3.78335   3.80033   3.80656   3.81617   3.81692
 Alpha virt. eigenvalues --    3.82097   3.82522   3.82865   3.83224   3.83617
 Alpha virt. eigenvalues --    3.84378   3.84549   3.84746   3.85005   3.85226
 Alpha virt. eigenvalues --    3.85340   3.85730   3.85843   3.85984   3.86157
 Alpha virt. eigenvalues --    3.86574   3.86642   3.86783   3.87478   3.87538
 Alpha virt. eigenvalues --    3.87657   3.88163   3.88736   3.89011   3.89383
 Alpha virt. eigenvalues --    3.89518   3.89901   3.90008   3.90078   3.90613
 Alpha virt. eigenvalues --    3.91202   3.91303   3.91529   3.93358   3.93405
 Alpha virt. eigenvalues --    3.93948   3.94259   3.95187   3.95820   3.98544
 Alpha virt. eigenvalues --    3.99355   3.99852   4.02099   4.03977   4.06080
 Alpha virt. eigenvalues --    4.06454   4.06890   4.07349   4.07623   4.08113
 Alpha virt. eigenvalues --    4.08727   4.09040   4.10148   4.11524   4.12576
 Alpha virt. eigenvalues --    4.13055   4.13866   4.15433   4.16078   4.17003
 Alpha virt. eigenvalues --    4.17450   4.20056   4.21122   4.21324   4.22082
 Alpha virt. eigenvalues --    4.22129   4.22681   4.23332   4.24229   4.24599
 Alpha virt. eigenvalues --    4.25423   4.25665   4.25933   4.26145   4.26415
 Alpha virt. eigenvalues --    4.26592   4.26930   4.28163   4.28204   4.29285
 Alpha virt. eigenvalues --    4.29971   4.30934   4.31006   4.31516   4.32046
 Alpha virt. eigenvalues --    4.33745   4.35320   4.36799   4.38494   4.39303
 Alpha virt. eigenvalues --    4.40112   4.41216   4.41636   4.41923   4.42762
 Alpha virt. eigenvalues --    4.43523   4.44274   4.46769   4.58363   4.77390
 Alpha virt. eigenvalues --    4.84028   4.87298   4.88433   4.89006   4.89651
 Alpha virt. eigenvalues --    4.89863   4.89897   4.90501   4.93464   4.95022
 Alpha virt. eigenvalues --    5.00349   5.03853   5.05316   5.15556   5.19212
 Alpha virt. eigenvalues --    5.24423   5.28432   5.29358   5.31745   5.33235
 Alpha virt. eigenvalues --    5.34697   5.37073   5.43748   5.48899   5.54410
 Alpha virt. eigenvalues --    5.55376   5.62757   5.68599   5.83058   5.87113
 Alpha virt. eigenvalues --    5.89492   5.94240   5.97685   6.05022   8.12154
 Alpha virt. eigenvalues --   17.53313  17.62610  17.64003  23.81620  23.82690
 Alpha virt. eigenvalues --   23.83245  23.83741  23.84430  23.86151  23.87421
 Alpha virt. eigenvalues --   23.97832  23.98966  23.99125  23.99213  23.99491
 Alpha virt. eigenvalues --   24.00831  24.00974  24.01287  24.02119  24.03408
 Alpha virt. eigenvalues --   24.03996  24.04216  24.05052  24.05727  24.05818
 Alpha virt. eigenvalues --   24.07630  24.08959  24.09762  24.09901  24.10378
 Alpha virt. eigenvalues --   24.10559  24.10841  24.11361  24.11838  24.12011
 Alpha virt. eigenvalues --   24.12387  24.12502  24.12734  24.13133  24.13480
 Alpha virt. eigenvalues --   24.13655  24.14095  24.14659  24.15061  24.15186
 Alpha virt. eigenvalues --   24.16013  24.16242  24.16386  24.16531  24.17862
 Alpha virt. eigenvalues --   24.18192  24.18438  24.18703  24.19556  24.20943
 Alpha virt. eigenvalues --   24.21063  24.21403  24.21839  24.21923  24.22301
 Alpha virt. eigenvalues --   24.22721  24.22793  24.23427  24.24445  24.28559
 Alpha virt. eigenvalues --   24.29831  24.30555  24.30653  24.31074  24.31306
 Alpha virt. eigenvalues --   24.94245  35.71721  35.78360  35.79835  35.83346
 Alpha virt. eigenvalues --   35.84600  35.92212  50.10680  50.14525  50.15249
 Alpha virt. eigenvalues --   50.20589  50.21354  50.24749 189.51291
          Condensed to atoms (all electrons):
 Mulliken charges:
               1
     1  C   -0.182889
     2  C    0.955034
     3  H    0.299816
     4  C   -0.869855
     5  H    0.178431
     6  H    0.155978
     7  N    1.134566
     8  H   -0.007413
     9  C   -0.399999
    10  C   -0.155237
    11  C   -0.117328
    12  C   -0.255659
    13  C   -0.160244
    14  H    0.243239
    15  H    0.365482
    16  C   -0.375864
    17  H    0.263857
    18  C   -0.336719
    19  H    0.233143
    20  C   -0.686472
    21  H    0.252430
    22  H    0.284485
    23  C    0.186080
    24  H   -0.328078
    25  H    0.486662
    26  H    0.333341
    27  C    1.214549
    28  C   -1.017798
    29  H    0.228140
    30  H    0.177336
    31  H    0.169273
    32  C   -0.191651
    33  H    0.204543
    34  H    0.184143
    35  C   -0.799034
    36  H    0.206543
    37  H    0.185898
    38  H    0.177573
    39  C   -1.059435
    40  C   -0.050942
    41  H    0.232410
    42  H    0.285407
    43  C   -0.253141
    44  H    0.276178
    45  H    0.293742
    46  C   -0.626376
    47  O   -0.087048
    48  N   -0.121373
    49  H    0.248729
    50  H   -0.360854
    51  C   -1.117733
    52  C   -0.270413
    53  H    0.215398
    54  H    0.240150
    55  C    0.905196
    56  C   -0.837310
    57  H    0.249405
    58  C   -0.398678
    59  H    0.236477
    60  C   -0.014486
    61  O   -0.014626
    62  H    0.347147
    63  C   -0.299769
    64  H   -0.078159
    65  C   -0.194733
    66  H    0.349807
    67  C   -1.174074
    68  C   -0.355484
    69  H    0.131630
    70  H    0.228323
    71  C    0.479367
    72  C   -0.236355
    73  H    0.235239
    74  C   -0.687936
    75  H    0.244055
    76  C   -0.314018
    77  H    0.237584
    78  C   -0.065401
    79  H    0.364487
    80  C    0.245576
    81  H   -0.018316
    82  C   -0.914150
    83  C   -0.101485
    84  H   -0.222065
    85  H    0.334676
    86  S    0.272647
    87  C   -1.413818
    88  H    0.286172
    89  H    0.307805
    90  C    0.692512
    91  C   -0.672722
    92  C   -0.466012
    93  H    0.323050
    94  C   -0.085828
    95  C   -0.713867
    96  H    0.280310
    97  H    0.209342
    98  H    0.230473
    99  C    0.514733
   100  H   -0.275462
   101  C   -0.644052
   102  N    0.669792
   103  C   -1.454990
   104  C    0.087473
   105  O   -0.009527
   106  N    0.117102
   107  H    0.494170
   108  C   -0.157130
   109  O   -0.221576
   110  N    0.054856
   111  C    0.154208
   112  N    0.587559
   113  C   -0.366888
   114  C   -1.040412
   115  C   -0.110088
   116  H    0.472566
   117  H   -0.142378
   118  C    0.085883
   119  C    0.241906
   120  H    0.114465
   121  C   -0.436861
   122  H    0.475193
   123  C   -0.644003
   124  O   -0.045727
   125  H    0.310751
   126  C   -0.315528
   127  H    0.248524
   128  C   -0.096147
   129  H    0.260825
   130  C   -0.064375
   131  C   -1.008317
   132  H    0.219593
   133  H    0.260828
   134  C    0.471641
   135  C   -0.596221
   136  H    0.239293
   137  C    0.035393
   138  H    0.297115
   139  C   -0.578504
   140  O    0.098808
   141  H    0.315376
   142  C   -0.011719
   143  H    0.256579
   144  C   -0.351205
   145  H    0.286116
   146  H    0.190642
   147  H    0.219086
   148  H    0.214905
   149  H    0.217407
   150  H    0.305072
   151  H    0.242073
   152  H    0.303743
   153  H    0.211148
   154  H    0.206390
   155  H    0.183656
   156  H    0.201528
   157  H    0.200504
   158  C   -0.824750
   159  H   -0.454747
   160  H    0.218377
   161  H    0.170166
   162  H    0.210619
   163  H    0.201118
   164  H   -0.465909
   165  H    0.248764
   166  H    0.220615
   167  H    0.181031
   168  H    0.138505
   169  H    0.262105
   170  H    0.225529
   171  H    0.179801
 Sum of Mulliken charges =  -0.00000
 Mulliken charges with hydrogens summed into heavy atoms:
               1
     1  C   -0.182889
     2  C    1.254851
     4  C   -0.691424
     7  N    1.127154
     9  C   -0.066658
    10  C   -0.155237
    11  C    0.125911
    12  C   -0.255659
    13  C    0.205238
    16  C   -0.112008
    18  C   -0.103576
    20  C   -0.149556
    23  C    0.344664
    27  C    0.759802
    28  C   -0.443049
    32  C    0.197036
    35  C   -0.229021
    39  C   -0.519284
    40  C    0.466875
    43  C    0.316779
    46  C   -0.626376
    47  O   -0.087048
    48  N   -0.233499
    51  C   -0.532046
    52  C    0.185135
    55  C    0.905196
    56  C   -0.587905
    58  C   -0.162202
    60  C   -0.014486
    61  O    0.332520
    63  C   -0.377929
    65  C    0.155074
    67  C   -0.452793
    68  C    0.004468
    71  C    0.479367
    72  C   -0.001116
    74  C   -0.443880
    76  C   -0.076434
    78  C    0.299086
    80  C    0.227260
    82  C   -0.289517
    83  C    0.011126
    86  S    0.272647
    87  C   -0.819841
    90  C    0.692512
    91  C   -0.349671
    92  C   -0.466012
    94  C   -0.085828
    95  C    0.006258
    99  C    0.239270
   101  C   -0.644052
   102  N    0.825770
   103  C   -1.454990
   104  C    0.087473
   105  O   -0.009527
   106  N    0.611272
   108  C   -0.157130
   109  O   -0.221576
   110  N    0.054856
   111  C    0.154208
   112  N    0.587559
   113  C    0.397663
   114  C   -0.372977
   115  C    0.220100
   118  C    0.085883
   119  C    0.356371
   121  C    0.038332
   123  C   -0.644003
   124  O    0.265024
   126  C   -0.067004
   128  C    0.164678
   130  C   -0.080402
   131  C   -0.527896
   134  C    0.471641
   135  C   -0.356928
   137  C    0.332507
   139  C   -0.578504
   140  O    0.414183
   142  C    0.244860
   144  C   -0.065090
   158  C   -0.225589
 Electronic spatial extent (au):  <R**2>=          65726.9030
 Charge=             -0.0000 electrons
 Dipole moment (field-independent basis, Debye):
    X=             -3.9915    Y=             11.1879    Z=              8.3810  Tot=             14.5376
 Quadrupole moment (field-independent basis, Debye-Ang):
   XX=           -477.0685   YY=           -513.5535   ZZ=           -495.8671
   XY=             20.4307   XZ=             28.9130   YZ=            -10.0432
 Traceless Quadrupole moment (field-independent basis, Debye-Ang):
   XX=             18.4279   YY=            -18.0571   ZZ=             -0.3707
   XY=             20.4307   XZ=             28.9130   YZ=            -10.0432
 Octapole moment (field-independent basis, Debye-Ang**2):
  XXX=             45.3532  YYY=            274.7906  ZZZ=            137.8417  XYY=           -110.2343
  XXY=            144.6484  XXZ=            -48.9555  XZZ=             11.0745  YZZ=            137.6151
  YYZ=            163.6288  XYZ=              0.2143
 Hexadecapole moment (field-independent basis, Debye-Ang**3):
 XXXX=         -46249.3823 YYYY=         -31395.1950 ZZZZ=         -14116.6542 XXXY=           -430.9396
 XXXZ=            898.4255 YYYX=            653.7994 YYYZ=           -165.7945 ZZZX=             48.9022
 ZZZY=           -147.2790 XXYY=         -12510.2708 XXZZ=          -9559.4726 YYZZ=          -8025.5646
 XXYZ=            352.6206 YYXZ=            324.0208 ZZXY=            191.6563
 N-N= 1.652656991515D+04 E-N=-4.196332454625D+04  KE= 3.805005915024D+03
 Leave Link  601 at Fri Apr  1 20:17:50 2022, MaxMem=  4294967296 cpu:             119.4 elap:               2.4
 (Enter /share/apps/g16/l9999.exe)
 1\1\GINC-COMPUTE-0-3\SP\RPBE1PBE\6-311++G(d,p)\C68H90N6O6S1\RVIANELLO\
 01-Apr-2022\0\\#p PBE1PBE/6-311++G(d,p) scrf=(CPCM,solvent=water,Read)
  scf=(XQC,Tight)\\optimisation\\0,1\C,0,-0.37575,-1.01811,0.511945\C,0
 ,-0.466361,-2.078648,-0.122323\H,0,-0.429233,-3.143625,-0.272363\C,0,-
 0.550223,0.36447,0.637274\H,0,-1.408968,0.670809,1.238012\H,0,-1.08767
 4,0.460022,-0.654277\N,0,0.512501,1.29697,0.683503\H,0,1.313963,0.9943
 4,0.133437\C,0,0.881567,1.809543,2.003443\C,0,2.186233,1.25669,2.54538
 3\C,0,2.670687,-0.044822,2.463343\C,0,2.923929,2.264957,3.170413\C,0,3
 .924199,-0.329619,3.009119\H,0,2.082653,-0.826489,1.984036\H,0,4.31493
 3,-1.342382,2.972175\C,0,4.67877,0.679906,3.613713\H,0,5.655716,0.4460
 84,4.026999\C,0,4.181957,1.985503,3.700297\H,0,4.769067,2.766023,4.177
 514\C,0,2.150375,3.564432,3.161232\H,0,1.657633,3.705377,4.132028\H,0,
 2.781302,4.440215,2.984324\C,0,1.112404,3.335917,2.045652\H,0,1.531009
 ,3.64735,1.081953\H,0,0.180126,3.884492,2.206622\H,0,0.065119,1.546749
 ,2.689644\C,0,6.331528,-2.272536,1.086638\C,0,6.528807,-3.182623,-0.12
 4539\H,0,7.595449,-3.293477,-0.358221\H,0,6.10644,-4.177174,0.043772\H
 ,0,6.02953,-2.766372,-1.007185\C,0,6.934893,-2.861311,2.366919\H,0,8.0
 19555,-2.97804,2.230756\H,0,6.806673,-2.130077,3.17785\C,0,6.317574,-4
 .192738,2.791753\H,0,6.684817,-4.502989,3.774406\H,0,5.225336,-4.11332
 4,2.848076\H,0,6.553691,-4.992027,2.083427\C,0,6.668723,-0.216953,-2.9
 70137\C,0,5.396956,0.617951,-2.837931\H,0,5.363626,1.097507,-1.851937\
 H,0,5.412718,1.432806,-3.569333\C,0,4.132337,-0.214677,-3.074645\H,0,3
 .244412,0.421853,-3.158281\H,0,4.218802,-0.774929,-4.0102\C,0,3.82935,
 -1.230164,-1.99343\O,0,3.554873,-2.411878,-2.286095\N,0,3.841757,-0.81
 2909,-0.721794\H,0,4.118076,0.121877,-0.431425\H,0,3.591595,-1.47996,0
 .002177\C,0,2.734665,6.963905,-2.742563\C,0,1.976851,6.395401,-1.53799
 5\H,0,1.893562,7.162424,-0.759565\H,0,0.953527,6.133494,-1.835146\C,0,
 2.656577,5.171219,-0.973016\C,0,3.546522,5.254695,0.101224\H,0,3.72821
 9,6.218701,0.570913\C,0,4.212721,4.128466,0.581553\H,0,4.909793,4.2068
 04,1.412339\C,0,3.970236,2.887786,-0.003276\O,0,4.607044,1.747632,0.41
 515\H,0,4.82605,1.802924,1.363242\C,0,3.082583,2.778074,-1.074038\H,0,
 2.876012,1.802425,-1.50799\C,0,2.447081,3.916744,-1.555356\H,0,1.75498
 9,3.828299,-2.388746\C,0,-0.759386,6.254627,0.76994\C,0,-1.945814,5.30
 6384,0.568512\H,0,-1.918513,4.518843,1.333651\H,0,-2.884368,5.8524,0.7
 15896\C,0,-1.941151,4.666981,-0.800579\C,0,-2.911707,4.977498,-1.75663
 2\H,0,-3.690068,5.697345,-1.512675\C,0,-2.901544,4.365003,-3.010359\H,
 0,-3.669807,4.612729,-3.737086\C,0,-1.915023,3.433685,-3.325777\H,0,-1
 .915202,2.94498,-4.295382\C,0,-0.936375,3.120279,-2.382207\H,0,-0.1903
 99,2.358669,-2.595347\C,0,-0.949387,3.736314,-1.133113\H,0,-0.200337,3
 .453635,-0.396178\C,0,-7.076404,-0.198826,3.284909\C,0,-7.175882,0.521
 644,1.947161\H,0,-6.186052,0.864038,1.633823\H,0,-7.835301,1.392354,2.
 014162\S,0,-7.814129,-0.610765,0.668119\C,0,-7.308716,0.295041,-0.8420
 8\H,0,-7.708221,1.310471,-0.797033\H,0,-7.822253,-0.221868,-1.657377\C
 ,0,-5.817473,0.284302,-1.073923\C,0,-5.229209,-0.911906,-1.483867\C,0,
 -3.854695,-1.006114,-1.71624\H,0,-5.867006,-1.778897,-1.617898\C,0,-5.
 020857,1.430353,-0.878921\C,0,-5.603244,2.768715,-0.491767\H,0,-6.1825
 78,3.199768,-1.316558\H,0,-6.270176,2.702039,0.373054\H,0,-4.801401,3.
 470973,-0.250127\C,0,-3.649983,1.32295,-1.093606\H,0,-3.005967,2.18632
 5,-0.9458\C,0,-3.054927,0.129762,-1.503985\N,0,-1.668419,0.106584,-1.7
 33754\C,0,-1.138067,-1.076296,-2.066348\C,0,0.293284,-1.06701,-2.45377
 5\O,0,1.025729,-0.109361,-2.242637\N,0,0.722657,-2.239975,-3.011451\H,
 0,1.728685,-2.353528,-3.152014\C,0,-0.077106,-3.360189,-3.299382\O,0,0
 .449461,-4.334888,-3.808439\N,0,-1.420334,-3.315023,-3.001903\C,0,-1.9
 29762,-2.244534,-2.447609\N,0,-3.268378,-2.183206,-2.203612\C,0,-4.130
 169,-3.313322,-2.541642\C,0,-4.597467,-3.377983,1.861915\C,0,-3.229634
 ,-2.749391,1.585894\H,0,-2.426527,-3.449622,1.849475\H,0,-3.130135,-2.
 563928,0.507721\C,0,-3.020158,-1.443233,2.312146\C,0,-3.763246,-0.3158
 97,1.947183\H,0,-4.490711,-0.406146,1.141895\C,0,-3.574361,0.915642,2.
 565995\H,0,-4.132207,1.79697,2.259111\C,0,-2.617303,1.03834,3.575712\O
 ,0,-2.427858,2.275769,4.118661\H,0,-1.762455,2.219888,4.821026\C,0,-1.
 876201,-0.07764,3.967486\H,0,-1.128028,0.016173,4.751359\C,0,-2.081629
 ,-1.302226,3.335019\H,0,-1.47839,-2.158178,3.628415\C,0,-2.670276,-5.6
 51694,-0.511095\C,0,-1.672072,-6.226518,0.497104\H,0,-2.067078,-6.1107
 73,1.513328\H,0,-1.56642,-7.305395,0.326497\C,0,-0.319271,-5.554719,0.
 414749\C,0,0.29701,-5.00948,1.545919\H,0,-0.197878,-5.089847,2.51145\C
 ,0,1.521348,-4.3499,1.464368\H,0,1.984952,-3.913006,2.344046\C,0,2.157
 09,-4.223153,0.228925\O,0,3.344629,-3.561699,0.165376\H,0,3.536249,-3.
 362343,-0.78501\C,0,1.567797,-4.774316,-0.91161\H,0,2.052838,-4.673108
 ,-1.878655\C,0,0.344144,-5.428468,-0.811932\H,0,-0.100763,-5.821985,-1
 .722231\H,0,-6.72105,0.493193,4.053788\H,0,-6.369686,-1.031806,3.22232
 8\H,0,-8.048625,-0.589616,3.599676\H,0,-4.653796,-3.657862,-1.645167\H
 ,0,-3.504526,-4.110463,-2.931586\H,0,-4.859543,-3.006094,-3.295714\H,0
 ,0.189796,5.726918,0.62122\H,0,-0.760174,6.678745,1.778822\H,0,-0.7984
 12,7.077768,0.049111\H,0,2.807992,6.216989,-3.539329\H,0,3.751705,7.25
 1158,-2.457687\H,0,2.228409,7.845655,-3.145916\C,0,6.899968,-0.878609,
 0.823755\H,0,5.249387,-2.183351,1.24718\H,0,7.981621,-0.931954,0.64675
 5\H,0,6.731546,-0.214854,1.680323\H,0,6.436293,-0.41574,-0.053411\H,0,
 -2.343449,-5.824517,-1.540772\H,0,-2.760816,-4.567484,-0.379165\H,0,-3
 .661294,-6.100571,-0.388888\H,0,7.560345,0.384057,-2.770212\H,0,6.7554
 25,-0.631441,-3.979728\H,0,6.668885,-1.056085,-2.266007\H,0,-5.403068,
 -2.712488,1.529938\H,0,-4.733034,-3.566361,2.931792\H,0,-4.704354,-4.3
 29269,1.329751\\Version=ES64L-G16RevB.01\State=1-A\HF=-3820.2251781\RM
 SD=5.258e-09\Dipole=-1.5703686,4.4016399,3.2973584\Quadrupole=13.70066
 28,-13.4250273,-0.2756356,15.1897448,21.4960878,-7.4668511\PG=C01 [X(C
 68H90N6O6S1)]\\@


 ... A MOLECULAR SYSTEM ... (PASSES) ... FROM ONE STATE OF EQUILIBRIUM 
 TO ANOTHER ... BY MEANS OF ALL POSSIBLE INTERMEDIATE PATHS, 
 BUT THE PATH MOST ECONOMICAL OF ENERGY WILL BE THE MORE OFTEN TRAVELED.

                      -- HENRY EYRING, 1945
 Job cpu time:       3 days 10 hours 48 minutes 54.7 seconds.
 Elapsed time:       0 days  1 hours 18 minutes 18.3 seconds.
 File lengths (MBytes):  RWF=   3647 Int=      0 D2E=      0 Chk=    337 Scr=      1
 Normal termination of Gaussian 16 at Fri Apr  1 20:17:51 2022.
