 Entering Gaussian System, Link 0=g16
 Input=ras-n-k1-scan1-ts1-irc-r-opt.com
 Output=ras-n-k1-scan1-ts1-irc-r-opt.log
 Initial command:
 /share/apps/g16/l1.exe "/state/partition1/Gau-135987.inp" -scrdir="/state/partition1/"
 Entering Link 1 = /share/apps/g16/l1.exe PID=    135988.
  
 Copyright (c) 1988-2017, Gaussian, Inc.  All Rights Reserved.
  
 This is part of the Gaussian(R) 16 program.  It is based on
 the Gaussian(R) 09 system (copyright 2009, Gaussian, Inc.),
 the Gaussian(R) 03 system (copyright 2003, Gaussian, Inc.),
 the Gaussian(R) 98 system (copyright 1998, Gaussian, Inc.),
 the Gaussian(R) 94 system (copyright 1995, Gaussian, Inc.),
 the Gaussian 92(TM) system (copyright 1992, Gaussian, Inc.),
 the Gaussian 90(TM) system (copyright 1990, Gaussian, Inc.),
 the Gaussian 88(TM) system (copyright 1988, Gaussian, Inc.),
 the Gaussian 86(TM) system (copyright 1986, Carnegie Mellon
 University), and the Gaussian 82(TM) system (copyright 1983,
 Carnegie Mellon University). Gaussian is a federally registered
 trademark of Gaussian, Inc.
  
 This software contains proprietary and confidential information,
 including trade secrets, belonging to Gaussian, Inc.
  
 This software is provided under written license and may be
 used, copied, transmitted, or stored only in accord with that
 written license.
  
 The following legend is applicable only to US Government
 contracts under FAR:
  
                    RESTRICTED RIGHTS LEGEND
  
 Use, reproduction and disclosure by the US Government is
 subject to restrictions as set forth in subparagraphs (a)
 and (c) of the Commercial Computer Software - Restricted
 Rights clause in FAR 52.227-19.
  
 Gaussian, Inc.
 340 Quinnipiac St., Bldg. 40, Wallingford CT 06492
  
  
 ---------------------------------------------------------------
 Warning -- This program may not be used in any manner that
 competes with the business of Gaussian, Inc. or will provide
 assistance to any competitor of Gaussian, Inc.  The licensee
 of this program is prohibited from giving any competitor of
 Gaussian, Inc. access to this program.  By using this program,
 the user acknowledges that Gaussian, Inc. is engaged in the
 business of creating and licensing software in the field of
 computational chemistry and represents and warrants to the
 licensee that it is not a competitor of Gaussian, Inc. and that
 it will not use this program in any manner prohibited above.
 ---------------------------------------------------------------
  

 Cite this work as:
 Gaussian 16, Revision B.01,
 M. J. Frisch, G. W. Trucks, H. B. Schlegel, G. E. Scuseria, 
 M. A. Robb, J. R. Cheeseman, G. Scalmani, V. Barone, 
 G. A. Petersson, H. Nakatsuji, X. Li, M. Caricato, A. V. Marenich, 
 J. Bloino, B. G. Janesko, R. Gomperts, B. Mennucci, H. P. Hratchian, 
 J. V. Ortiz, A. F. Izmaylov, J. L. Sonnenberg, D. Williams-Young, 
 F. Ding, F. Lipparini, F. Egidi, J. Goings, B. Peng, A. Petrone, 
 T. Henderson, D. Ranasinghe, V. G. Zakrzewski, J. Gao, N. Rega, 
 G. Zheng, W. Liang, M. Hada, M. Ehara, K. Toyota, R. Fukuda, 
 J. Hasegawa, M. Ishida, T. Nakajima, Y. Honda, O. Kitao, H. Nakai, 
 T. Vreven, K. Throssell, J. A. Montgomery, Jr., J. E. Peralta, 
 F. Ogliaro, M. J. Bearpark, J. J. Heyd, E. N. Brothers, K. N. Kudin, 
 V. N. Staroverov, T. A. Keith, R. Kobayashi, J. Normand, 
 K. Raghavachari, A. P. Rendell, J. C. Burant, S. S. Iyengar, 
 J. Tomasi, M. Cossi, J. M. Millam, M. Klene, C. Adamo, R. Cammi, 
 J. W. Ochterski, R. L. Martin, K. Morokuma, O. Farkas, 
 J. B. Foresman, and D. J. Fox, Gaussian, Inc., Wallingford CT, 2016.
 
 ******************************************
 Gaussian 16:  ES64L-G16RevB.01 20-Dec-2017
                25-Mar-2022 
 ******************************************
 %mem=32GB
 %nproc=64
 Will use up to   64 processors via shared memory.
 ----------------------------------------------------------------------
 #p PBE1PBE/6-311++G(d,p) scrf=(CPCM,solvent=water,Read) scf=(XQC,Tight
 )
 ----------------------------------------------------------------------
 1/38=1,40=2,172=1/1;
 2/12=2,17=6,18=5,40=1/2;
 3/5=4,6=6,7=1111,11=2,25=1,30=1,70=2103,72=1,74=-13/1,2,3;
 4//1;
 5/5=2,8=3,13=1,32=2,38=5,53=1/2,8;
 6/7=2,8=2,9=2,10=2,28=1/1;
 99/5=1,9=1/99;
 Leave Link    1 at Fri Mar 25 21:43:21 2022, MaxMem=  4294967296 cpu:               7.3 elap:               0.1
 (Enter /share/apps/g16/l101.exe)
 ------------
 optimisation
 ------------
 Symbolic Z-matrix:
 Charge =  0 Multiplicity = 1
 6                    0    -0.35746  -0.95226   0.64905 
 6                    0    -0.13374  -2.14141   0.67116 
 1                    0     0.05569  -3.19627   0.70243 
 6                    0    -0.60589   0.49672   0.5288 
 1                    0    -1.37733   0.79404   1.24607 
 1                    0    -1.01202   0.68839  -0.47194 
 7                    0     0.54976   1.35743   0.72467 
 1                    0     1.31872   1.05935   0.12666 
 6                    0     0.99228   1.54234   2.10654 
 6                    0     2.36987   0.99278   2.42021 
 6                    0     2.89452  -0.25093   2.08247 
 6                    0     3.12479   1.91681   3.14715 
 6                    0     4.20843  -0.54993   2.44757 
 1                    0     2.28834  -0.97932   1.54422 
 1                    0     4.62222  -1.52432   2.20437 
 6                    0     4.98837   0.39267   3.12407 
 1                    0     6.01508   0.15387   3.3864 
 6                    0     4.44666   1.63109   3.48626 
 1                    0     5.0463    2.35348   4.03457 
 6                    0     2.29034   3.13145   3.48489 
 1                    0     1.92799   3.04548   4.51751 
 1                    0     2.84637   4.07087   3.41198 
 6                    0     1.12912   3.03986   2.47723 
 1                    0     1.3923    3.57844   1.55982 
 1                    0     0.1894    3.4559    2.85425 
 1                    0     0.25573   1.0585    2.765 
 6                    0     6.9479   -1.64411   0.23798 
 6                    0     6.92222  -2.5561   -0.98744 
 1                    0     7.89572  -2.55568  -1.49465 
 1                    0     6.67682  -3.58755  -0.71764 
 1                    0     6.16466  -2.22426  -1.70598 
 6                    0     7.91971  -2.14197   1.3138 
 1                    0     8.94014  -2.14137   0.90421 
 1                    0     7.92109  -1.41762   2.13972 
 6                    0     7.58175  -3.52705   1.86385 
 1                    0     8.20738  -3.77291   2.72696 
 1                    0     6.53332  -3.57263   2.18209 
 1                    0     7.73283  -4.30871   1.11385 
 6                    0     6.1341    0.23713  -3.78151 
 6                    0     4.81964   0.92893  -3.42967 
 1                    0     4.92216   1.47029  -2.47965 
 1                    0     4.59039   1.68866  -4.18421 
 6                    0     3.64105  -0.05001  -3.36363 
 1                    0     2.68955   0.48572  -3.28118 
 1                    0     3.59748  -0.65568  -4.27345 
 6                    0     3.68989  -1.01415  -2.19702 
 8                    0     3.53147  -2.2435   -2.3539 
 7                    0     3.89402  -0.49268  -0.98452 
 1                    0     4.05881   0.494    -0.80616 
 1                    0     3.8885   -1.11177  -0.17984 
 6                    0     2.60339   7.95726  -1.27651 
 6                    0     1.7208    6.9527   -0.52776 
 1                    0     1.41955   7.37748   0.43736 
 1                    0     0.8002    6.77743  -1.09567 
 6                    0     2.4298    5.63768  -0.3048 
 6                    0     3.37936   5.50011   0.71281 
 1                    0     3.57574   6.33891   1.37718 
 6                    0     4.08607   4.31467   0.89015 
 1                    0     4.8276    4.22097   1.67991 
 6                    0     3.83223   3.23239   0.04881 
 8                    0     4.51815   2.05152   0.1621 
 1                    0     4.82547   1.92125   1.07813 
 6                    0     2.88415   3.34162  -0.96618 
 1                    0     2.68115   2.48648  -1.60686 
 6                    0     2.19708   4.53994  -1.13823 
 1                    0     1.45218   4.6162   -1.92717 
 6                    0    -1.16717   5.29214   0.88982 
 6                    0    -2.01664   4.06882   0.53326 
 1                    0    -1.55973   3.17469   0.97593 
 1                    0    -3.01067   4.17392   0.97962 
 6                    0    -2.13953   3.8856   -0.95894 
 6                    0    -3.2063    4.45051  -1.66561 
 1                    0    -3.96906   5.00558  -1.12254 
 6                    0    -3.30497   4.30721  -3.04937 
 1                    0    -4.14339   4.74921  -3.58046 
 6                    0    -2.33393   3.59037  -3.74777 
 1                    0    -2.41395   3.46834  -4.82362 
 6                    0    -1.26334   3.02775  -3.0542 
 1                    0    -0.50948   2.45273  -3.58433 
 6                    0    -1.16431   3.17989  -1.6719 
 1                    0    -0.33007   2.74136  -1.12516 
 6                    0    -7.16362   0.25681   3.00251 
 6                    0    -7.3819    0.53767   1.52189 
 1                    0    -6.4366    0.8309    1.05705 
 1                    0    -8.10609   1.34444   1.37357 
 16                   0    -7.98608  -0.96519   0.68282 
 6                    0    -7.64337  -0.51857  -1.05797 
 1                    0    -8.15949   0.41278  -1.29753 
 1                    0    -8.11031  -1.31395  -1.64538 
 6                    0    -6.16822  -0.44188  -1.37112 
 6                    0    -5.44771  -1.63199  -1.39434 
 6                    0    -4.07893  -1.63514  -1.68767 
 1                    0    -5.97042  -2.55858  -1.1826 
 6                    0    -5.52882   0.7993   -1.62194 
 6                    0    -6.28848   2.10307  -1.63592 
 1                    0    -7.02514   2.12451  -2.44629 
 1                    0    -6.82865   2.27667  -0.69968 
 1                    0    -5.5971    2.93506  -1.78723 
 6                    0    -4.16837   0.79318  -1.88401 
 1                    0    -3.62543   1.71758  -2.06969 
 6                    0    -3.434    -0.40194  -1.92793 
 7                    0    -2.08785  -0.33781  -2.18832 
 6                    0    -1.42647  -1.44151  -2.23937 
 6                    0     0.05776  -1.37297  -2.41175 
 8                    0     0.6859   -0.3308   -2.35323 
 7                    0     0.63057  -2.59116  -2.64233 
 1                    0     1.64757  -2.61039  -2.77022 
 6                    0    -0.03379  -3.83106  -2.67556 
 8                    0     0.58789  -4.81729  -3.02553 
 7                    0    -1.35803  -3.88966  -2.29364 
 6                    0    -2.01105  -2.77573  -2.10281 
 7                    0    -3.33668  -2.80503  -1.77202 
 6                    0    -3.99688  -4.08904  -1.53353 
 6                    0    -4.65408  -2.97042   2.18949 
 6                    0    -3.2715   -2.35073   1.9704 
 1                    0    -2.51785  -2.89914   2.5469 
 1                    0    -2.98013  -2.45433   0.9159 
 6                    0    -3.2164   -0.89256   2.35581 
 6                    0    -3.91099   0.066     1.60999 
 1                    0    -4.48328  -0.25487   0.74182 
 6                    0    -3.88373   1.41524   1.94506 
 1                    0    -4.41626   2.1541    1.35119 
 6                    0    -3.14996   1.83433   3.05848 
 8                    0    -3.15951   3.16279   3.36298 
 1                    0    -2.60461   3.31882   4.14195 
 6                    0    -2.44339   0.89635   3.81209 
 1                    0    -1.86545   1.2193    4.67511 
 6                    0    -2.48233  -0.45151   3.45699 
 1                    0    -1.92062  -1.17055   4.04804 
 6                    0    -1.83439  -5.79774   1.01498 
 6                    0    -0.57005  -6.33148   1.69903 
 1                    0    -0.69992  -6.31567   2.78655 
 1                    0    -0.42532  -7.38094   1.41462 
 6                    0     0.65451  -5.52702   1.32626 
 6                    0     1.39046  -4.81109   2.27474 
 1                    0     1.09971  -4.85821   3.32146 
 6                    0     2.47784  -4.01924   1.90836 
 1                    0     3.03365  -3.45384   2.65081 
 6                    0     2.84852  -3.93515   0.56621 
 8                    0     3.90806  -3.15036   0.21918 
 1                    0     3.90441  -3.04301  -0.76393 
 6                    0     2.13948  -4.65863  -0.39521 
 1                    0     2.4288   -4.6053   -1.44086 
 6                    0     1.05569  -5.43966  -0.01213 
 1                    0     0.50868  -5.97606  -0.78368 
 1                    0    -6.8226    1.1666    3.50493 
 1                    0    -6.39912  -0.51405   3.13857 
 1                    0    -8.08735  -0.07595   3.48529 
 1                    0    -4.38056  -4.11223  -0.50948 
 1                    0    -3.26361  -4.87666  -1.6765 
 1                    0    -4.82032  -4.21406  -2.23999 
 1                    0    -0.1428    5.16429   0.5242 
 1                    0    -1.12713   5.4357    1.97459 
 1                    0    -1.58032   6.20032   0.43723 
 1                    0     2.8912    7.56073  -2.25503 
 1                    0     3.52048   8.16103  -0.71466 
 1                    0     2.07886   8.9048   -1.42995 
 6                    0     7.26916  -0.20141  -0.14931 
 1                    0     5.94219  -1.66171   0.67354 
 1                    0     8.26204  -0.13523  -0.61205 
 1                    0     7.26387   0.45227   0.73137 
 1                    0     6.53623   0.19226  -0.86128 
 1                    0    -1.72468  -5.82292  -0.07406 
 1                    0    -2.01763  -4.75595   1.30095 
 1                    0    -2.7143   -6.38954   1.28622 
 1                    0     6.96349   0.94973  -3.80442 
 1                    0     6.06661  -0.24036  -4.7644 
 1                    0     6.38344  -0.53941  -3.0511 
 1                    0    -5.4118   -2.4675    1.57627 
 1                    0    -4.95889  -2.87946   3.23739 
 1                    0    -4.653    -4.03494   1.92963 
 
 ITRead=  0  0  0  0  0  0  0  0  0  0  0  0  0  0  0  0  0  0  0  0
 ITRead=  0  0  0  0  0  0  0  0  0  0  0  0  0  0  0  0  0  0  0  0
 ITRead=  0  0  0  0  0  0  0  0  0  0  0  0  0  0  0  0  0  0  0  0
 ITRead=  0  0  0  0  0  0  0  0  0  0  0  0  0  0  0  0  0  0  0  0
 ITRead=  0  0  0  0  0  0  0  0  0  0  0  0  0  0  0  0  0  0  0  0
 ITRead=  0  0  0  0  0  0  0  0  0  0  0  0  0  0  0  0  0  0  0  0
 ITRead=  0  0  0  0  0  0  0  0  0  0  0  0  0  0  0  0  0  0  0  0
 ITRead=  0  0  0  0  0  0  0  0  0  0  0  0  0  0  0  0  0  0  0  0
 ITRead=  0  0  0  0  0  0  0  0  0  0  0
 MicOpt= -1 -1 -1 -1 -1 -1 -1 -1 -1 -1 -1 -1 -1 -1 -1 -1 -1 -1 -1 -1
 MicOpt= -1 -1 -1 -1 -1 -1 -1 -1 -1 -1 -1 -1 -1 -1 -1 -1 -1 -1 -1 -1
 MicOpt= -1 -1 -1 -1 -1 -1 -1 -1 -1 -1 -1 -1 -1 -1 -1 -1 -1 -1 -1 -1
 MicOpt= -1 -1 -1 -1 -1 -1 -1 -1 -1 -1 -1 -1 -1 -1 -1 -1 -1 -1 -1 -1
 MicOpt= -1 -1 -1 -1 -1 -1 -1 -1 -1 -1 -1 -1 -1 -1 -1 -1 -1 -1 -1 -1
 MicOpt= -1 -1 -1 -1 -1 -1 -1 -1 -1 -1 -1 -1 -1 -1 -1 -1 -1 -1 -1 -1
 MicOpt= -1 -1 -1 -1 -1 -1 -1 -1 -1 -1 -1 -1 -1 -1 -1 -1 -1 -1 -1 -1
 MicOpt= -1 -1 -1 -1 -1 -1 -1 -1 -1 -1 -1 -1 -1 -1 -1 -1 -1 -1 -1 -1
 MicOpt= -1 -1 -1 -1 -1 -1 -1 -1 -1 -1 -1
 NAtoms=    171 NQM=      171 NQMF=       0 NMMI=      0 NMMIF=      0
                NMic=       0 NMicF=      0.
                    Isotopes and Nuclear Properties:
 (Nuclear quadrupole moments (NQMom) in fm**2, nuclear magnetic moments (NMagM)
  in nuclear magnetons)

  Atom         1           2           3           4           5           6           7           8           9          10
 IAtWgt=          12          12           1          12           1           1          14           1          12          12
 AtmWgt=  12.0000000  12.0000000   1.0078250  12.0000000   1.0078250   1.0078250  14.0030740   1.0078250  12.0000000  12.0000000
 NucSpn=           0           0           1           0           1           1           2           1           0           0
 AtZEff=  -0.0000000  -0.0000000  -0.0000000  -0.0000000  -0.0000000  -0.0000000  -0.0000000  -0.0000000  -0.0000000  -0.0000000
 NQMom=    0.0000000   0.0000000   0.0000000   0.0000000   0.0000000   0.0000000   2.0440000   0.0000000   0.0000000   0.0000000
 NMagM=    0.0000000   0.0000000   2.7928460   0.0000000   2.7928460   2.7928460   0.4037610   2.7928460   0.0000000   0.0000000
 AtZNuc=   6.0000000   6.0000000   1.0000000   6.0000000   1.0000000   1.0000000   7.0000000   1.0000000   6.0000000   6.0000000

  Atom        11          12          13          14          15          16          17          18          19          20
 IAtWgt=          12          12          12           1           1          12           1          12           1          12
 AtmWgt=  12.0000000  12.0000000  12.0000000   1.0078250   1.0078250  12.0000000   1.0078250  12.0000000   1.0078250  12.0000000
 NucSpn=           0           0           0           1           1           0           1           0           1           0
 AtZEff=  -0.0000000  -0.0000000  -0.0000000  -0.0000000  -0.0000000  -0.0000000  -0.0000000  -0.0000000  -0.0000000  -0.0000000
 NQMom=    0.0000000   0.0000000   0.0000000   0.0000000   0.0000000   0.0000000   0.0000000   0.0000000   0.0000000   0.0000000
 NMagM=    0.0000000   0.0000000   0.0000000   2.7928460   2.7928460   0.0000000   2.7928460   0.0000000   2.7928460   0.0000000
 AtZNuc=   6.0000000   6.0000000   6.0000000   1.0000000   1.0000000   6.0000000   1.0000000   6.0000000   1.0000000   6.0000000

  Atom        21          22          23          24          25          26          27          28          29          30
 IAtWgt=           1           1          12           1           1           1          12          12           1           1
 AtmWgt=   1.0078250   1.0078250  12.0000000   1.0078250   1.0078250   1.0078250  12.0000000  12.0000000   1.0078250   1.0078250
 NucSpn=           1           1           0           1           1           1           0           0           1           1
 AtZEff=  -0.0000000  -0.0000000  -0.0000000  -0.0000000  -0.0000000  -0.0000000  -0.0000000  -0.0000000  -0.0000000  -0.0000000
 NQMom=    0.0000000   0.0000000   0.0000000   0.0000000   0.0000000   0.0000000   0.0000000   0.0000000   0.0000000   0.0000000
 NMagM=    2.7928460   2.7928460   0.0000000   2.7928460   2.7928460   2.7928460   0.0000000   0.0000000   2.7928460   2.7928460
 AtZNuc=   1.0000000   1.0000000   6.0000000   1.0000000   1.0000000   1.0000000   6.0000000   6.0000000   1.0000000   1.0000000

  Atom        31          32          33          34          35          36          37          38          39          40
 IAtWgt=           1          12           1           1          12           1           1           1          12          12
 AtmWgt=   1.0078250  12.0000000   1.0078250   1.0078250  12.0000000   1.0078250   1.0078250   1.0078250  12.0000000  12.0000000
 NucSpn=           1           0           1           1           0           1           1           1           0           0
 AtZEff=  -0.0000000  -0.0000000  -0.0000000  -0.0000000  -0.0000000  -0.0000000  -0.0000000  -0.0000000  -0.0000000  -0.0000000
 NQMom=    0.0000000   0.0000000   0.0000000   0.0000000   0.0000000   0.0000000   0.0000000   0.0000000   0.0000000   0.0000000
 NMagM=    2.7928460   0.0000000   2.7928460   2.7928460   0.0000000   2.7928460   2.7928460   2.7928460   0.0000000   0.0000000
 AtZNuc=   1.0000000   6.0000000   1.0000000   1.0000000   6.0000000   1.0000000   1.0000000   1.0000000   6.0000000   6.0000000

  Atom        41          42          43          44          45          46          47          48          49          50
 IAtWgt=           1           1          12           1           1          12          16          14           1           1
 AtmWgt=   1.0078250   1.0078250  12.0000000   1.0078250   1.0078250  12.0000000  15.9949146  14.0030740   1.0078250   1.0078250
 NucSpn=           1           1           0           1           1           0           0           2           1           1
 AtZEff=  -0.0000000  -0.0000000  -0.0000000  -0.0000000  -0.0000000  -0.0000000  -0.0000000  -0.0000000  -0.0000000  -0.0000000
 NQMom=    0.0000000   0.0000000   0.0000000   0.0000000   0.0000000   0.0000000   0.0000000   2.0440000   0.0000000   0.0000000
 NMagM=    2.7928460   2.7928460   0.0000000   2.7928460   2.7928460   0.0000000   0.0000000   0.4037610   2.7928460   2.7928460
 AtZNuc=   1.0000000   1.0000000   6.0000000   1.0000000   1.0000000   6.0000000   8.0000000   7.0000000   1.0000000   1.0000000

  Atom        51          52          53          54          55          56          57          58          59          60
 IAtWgt=          12          12           1           1          12          12           1          12           1          12
 AtmWgt=  12.0000000  12.0000000   1.0078250   1.0078250  12.0000000  12.0000000   1.0078250  12.0000000   1.0078250  12.0000000
 NucSpn=           0           0           1           1           0           0           1           0           1           0
 AtZEff=  -0.0000000  -0.0000000  -0.0000000  -0.0000000  -0.0000000  -0.0000000  -0.0000000  -0.0000000  -0.0000000  -0.0000000
 NQMom=    0.0000000   0.0000000   0.0000000   0.0000000   0.0000000   0.0000000   0.0000000   0.0000000   0.0000000   0.0000000
 NMagM=    0.0000000   0.0000000   2.7928460   2.7928460   0.0000000   0.0000000   2.7928460   0.0000000   2.7928460   0.0000000
 AtZNuc=   6.0000000   6.0000000   1.0000000   1.0000000   6.0000000   6.0000000   1.0000000   6.0000000   1.0000000   6.0000000

  Atom        61          62          63          64          65          66          67          68          69          70
 IAtWgt=          16           1          12           1          12           1          12          12           1           1
 AtmWgt=  15.9949146   1.0078250  12.0000000   1.0078250  12.0000000   1.0078250  12.0000000  12.0000000   1.0078250   1.0078250
 NucSpn=           0           1           0           1           0           1           0           0           1           1
 AtZEff=  -0.0000000  -0.0000000  -0.0000000  -0.0000000  -0.0000000  -0.0000000  -0.0000000  -0.0000000  -0.0000000  -0.0000000
 NQMom=    0.0000000   0.0000000   0.0000000   0.0000000   0.0000000   0.0000000   0.0000000   0.0000000   0.0000000   0.0000000
 NMagM=    0.0000000   2.7928460   0.0000000   2.7928460   0.0000000   2.7928460   0.0000000   0.0000000   2.7928460   2.7928460
 AtZNuc=   8.0000000   1.0000000   6.0000000   1.0000000   6.0000000   1.0000000   6.0000000   6.0000000   1.0000000   1.0000000

  Atom        71          72          73          74          75          76          77          78          79          80
 IAtWgt=          12          12           1          12           1          12           1          12           1          12
 AtmWgt=  12.0000000  12.0000000   1.0078250  12.0000000   1.0078250  12.0000000   1.0078250  12.0000000   1.0078250  12.0000000
 NucSpn=           0           0           1           0           1           0           1           0           1           0
 AtZEff=  -0.0000000  -0.0000000  -0.0000000  -0.0000000  -0.0000000  -0.0000000  -0.0000000  -0.0000000  -0.0000000  -0.0000000
 NQMom=    0.0000000   0.0000000   0.0000000   0.0000000   0.0000000   0.0000000   0.0000000   0.0000000   0.0000000   0.0000000
 NMagM=    0.0000000   0.0000000   2.7928460   0.0000000   2.7928460   0.0000000   2.7928460   0.0000000   2.7928460   0.0000000
 AtZNuc=   6.0000000   6.0000000   1.0000000   6.0000000   1.0000000   6.0000000   1.0000000   6.0000000   1.0000000   6.0000000

  Atom        81          82          83          84          85          86          87          88          89          90
 IAtWgt=           1          12          12           1           1          32          12           1           1          12
 AtmWgt=   1.0078250  12.0000000  12.0000000   1.0078250   1.0078250  31.9720718  12.0000000   1.0078250   1.0078250  12.0000000
 NucSpn=           1           0           0           1           1           0           0           1           1           0
 AtZEff=  -0.0000000  -0.0000000  -0.0000000  -0.0000000  -0.0000000  -0.0000000  -0.0000000  -0.0000000  -0.0000000  -0.0000000
 NQMom=    0.0000000   0.0000000   0.0000000   0.0000000   0.0000000   0.0000000   0.0000000   0.0000000   0.0000000   0.0000000
 NMagM=    2.7928460   0.0000000   0.0000000   2.7928460   2.7928460   0.0000000   0.0000000   2.7928460   2.7928460   0.0000000
 AtZNuc=   1.0000000   6.0000000   6.0000000   1.0000000   1.0000000  16.0000000   6.0000000   1.0000000   1.0000000   6.0000000

  Atom        91          92          93          94          95          96          97          98          99         100
 IAtWgt=          12          12           1          12          12           1           1           1          12           1
 AtmWgt=  12.0000000  12.0000000   1.0078250  12.0000000  12.0000000   1.0078250   1.0078250   1.0078250  12.0000000   1.0078250
 NucSpn=           0           0           1           0           0           1           1           1           0           1
 AtZEff=  -0.0000000  -0.0000000  -0.0000000  -0.0000000  -0.0000000  -0.0000000  -0.0000000  -0.0000000  -0.0000000  -0.0000000
 NQMom=    0.0000000   0.0000000   0.0000000   0.0000000   0.0000000   0.0000000   0.0000000   0.0000000   0.0000000   0.0000000
 NMagM=    0.0000000   0.0000000   2.7928460   0.0000000   0.0000000   2.7928460   2.7928460   2.7928460   0.0000000   2.7928460
 AtZNuc=   6.0000000   6.0000000   1.0000000   6.0000000   6.0000000   1.0000000   1.0000000   1.0000000   6.0000000   1.0000000

  Atom       101         102         103         104         105         106         107         108         109         110
 IAtWgt=          12          14          12          12          16          14           1          12          16          14
 AtmWgt=  12.0000000  14.0030740  12.0000000  12.0000000  15.9949146  14.0030740   1.0078250  12.0000000  15.9949146  14.0030740
 NucSpn=           0           2           0           0           0           2           1           0           0           2
 AtZEff=  -0.0000000  -0.0000000  -0.0000000  -0.0000000  -0.0000000  -0.0000000  -0.0000000  -0.0000000  -0.0000000  -0.0000000
 NQMom=    0.0000000   2.0440000   0.0000000   0.0000000   0.0000000   2.0440000   0.0000000   0.0000000   0.0000000   2.0440000
 NMagM=    0.0000000   0.4037610   0.0000000   0.0000000   0.0000000   0.4037610   2.7928460   0.0000000   0.0000000   0.4037610
 AtZNuc=   6.0000000   7.0000000   6.0000000   6.0000000   8.0000000   7.0000000   1.0000000   6.0000000   8.0000000   7.0000000

  Atom       111         112         113         114         115         116         117         118         119         120
 IAtWgt=          12          14          12          12          12           1           1          12          12           1
 AtmWgt=  12.0000000  14.0030740  12.0000000  12.0000000  12.0000000   1.0078250   1.0078250  12.0000000  12.0000000   1.0078250
 NucSpn=           0           2           0           0           0           1           1           0           0           1
 AtZEff=  -0.0000000  -0.0000000  -0.0000000  -0.0000000  -0.0000000  -0.0000000  -0.0000000  -0.0000000  -0.0000000  -0.0000000
 NQMom=    0.0000000   2.0440000   0.0000000   0.0000000   0.0000000   0.0000000   0.0000000   0.0000000   0.0000000   0.0000000
 NMagM=    0.0000000   0.4037610   0.0000000   0.0000000   0.0000000   2.7928460   2.7928460   0.0000000   0.0000000   2.7928460
 AtZNuc=   6.0000000   7.0000000   6.0000000   6.0000000   6.0000000   1.0000000   1.0000000   6.0000000   6.0000000   1.0000000

  Atom       121         122         123         124         125         126         127         128         129         130
 IAtWgt=          12           1          12          16           1          12           1          12           1          12
 AtmWgt=  12.0000000   1.0078250  12.0000000  15.9949146   1.0078250  12.0000000   1.0078250  12.0000000   1.0078250  12.0000000
 NucSpn=           0           1           0           0           1           0           1           0           1           0
 AtZEff=  -0.0000000  -0.0000000  -0.0000000  -0.0000000  -0.0000000  -0.0000000  -0.0000000  -0.0000000  -0.0000000  -0.0000000
 NQMom=    0.0000000   0.0000000   0.0000000   0.0000000   0.0000000   0.0000000   0.0000000   0.0000000   0.0000000   0.0000000
 NMagM=    0.0000000   2.7928460   0.0000000   0.0000000   2.7928460   0.0000000   2.7928460   0.0000000   2.7928460   0.0000000
 AtZNuc=   6.0000000   1.0000000   6.0000000   8.0000000   1.0000000   6.0000000   1.0000000   6.0000000   1.0000000   6.0000000

  Atom       131         132         133         134         135         136         137         138         139         140
 IAtWgt=          12           1           1          12          12           1          12           1          12          16
 AtmWgt=  12.0000000   1.0078250   1.0078250  12.0000000  12.0000000   1.0078250  12.0000000   1.0078250  12.0000000  15.9949146
 NucSpn=           0           1           1           0           0           1           0           1           0           0
 AtZEff=  -0.0000000  -0.0000000  -0.0000000  -0.0000000  -0.0000000  -0.0000000  -0.0000000  -0.0000000  -0.0000000  -0.0000000
 NQMom=    0.0000000   0.0000000   0.0000000   0.0000000   0.0000000   0.0000000   0.0000000   0.0000000   0.0000000   0.0000000
 NMagM=    0.0000000   2.7928460   2.7928460   0.0000000   0.0000000   2.7928460   0.0000000   2.7928460   0.0000000   0.0000000
 AtZNuc=   6.0000000   1.0000000   1.0000000   6.0000000   6.0000000   1.0000000   6.0000000   1.0000000   6.0000000   8.0000000

  Atom       141         142         143         144         145         146         147         148         149         150
 IAtWgt=           1          12           1          12           1           1           1           1           1           1
 AtmWgt=   1.0078250  12.0000000   1.0078250  12.0000000   1.0078250   1.0078250   1.0078250   1.0078250   1.0078250   1.0078250
 NucSpn=           1           0           1           0           1           1           1           1           1           1
 AtZEff=  -0.0000000  -0.0000000  -0.0000000  -0.0000000  -0.0000000  -0.0000000  -0.0000000  -0.0000000  -0.0000000  -0.0000000
 NQMom=    0.0000000   0.0000000   0.0000000   0.0000000   0.0000000   0.0000000   0.0000000   0.0000000   0.0000000   0.0000000
 NMagM=    2.7928460   0.0000000   2.7928460   0.0000000   2.7928460   2.7928460   2.7928460   2.7928460   2.7928460   2.7928460
 AtZNuc=   1.0000000   6.0000000   1.0000000   6.0000000   1.0000000   1.0000000   1.0000000   1.0000000   1.0000000   1.0000000

  Atom       151         152         153         154         155         156         157         158         159         160
 IAtWgt=           1           1           1           1           1           1           1          12           1           1
 AtmWgt=   1.0078250   1.0078250   1.0078250   1.0078250   1.0078250   1.0078250   1.0078250  12.0000000   1.0078250   1.0078250
 NucSpn=           1           1           1           1           1           1           1           0           1           1
 AtZEff=  -0.0000000  -0.0000000  -0.0000000  -0.0000000  -0.0000000  -0.0000000  -0.0000000  -0.0000000  -0.0000000  -0.0000000
 NQMom=    0.0000000   0.0000000   0.0000000   0.0000000   0.0000000   0.0000000   0.0000000   0.0000000   0.0000000   0.0000000
 NMagM=    2.7928460   2.7928460   2.7928460   2.7928460   2.7928460   2.7928460   2.7928460   0.0000000   2.7928460   2.7928460
 AtZNuc=   1.0000000   1.0000000   1.0000000   1.0000000   1.0000000   1.0000000   1.0000000   6.0000000   1.0000000   1.0000000

  Atom       161         162         163         164         165         166         167         168         169         170
 IAtWgt=           1           1           1           1           1           1           1           1           1           1
 AtmWgt=   1.0078250   1.0078250   1.0078250   1.0078250   1.0078250   1.0078250   1.0078250   1.0078250   1.0078250   1.0078250
 NucSpn=           1           1           1           1           1           1           1           1           1           1
 AtZEff=  -0.0000000  -0.0000000  -0.0000000  -0.0000000  -0.0000000  -0.0000000  -0.0000000  -0.0000000  -0.0000000  -0.0000000
 NQMom=    0.0000000   0.0000000   0.0000000   0.0000000   0.0000000   0.0000000   0.0000000   0.0000000   0.0000000   0.0000000
 NMagM=    2.7928460   2.7928460   2.7928460   2.7928460   2.7928460   2.7928460   2.7928460   2.7928460   2.7928460   2.7928460
 AtZNuc=   1.0000000   1.0000000   1.0000000   1.0000000   1.0000000   1.0000000   1.0000000   1.0000000   1.0000000   1.0000000

  Atom       171
 IAtWgt=           1
 AtmWgt=   1.0078250
 NucSpn=           1
 AtZEff=  -0.0000000
 NQMom=    0.0000000
 NMagM=    2.7928460
 AtZNuc=   1.0000000
 Leave Link  101 at Fri Mar 25 21:43:21 2022, MaxMem=  4294967296 cpu:              11.8 elap:               0.2
 (Enter /share/apps/g16/l202.exe)
 Stoichiometry    C68H90N6O6S
 Framework group  C1[X(C68H90N6O6S)]
 Deg. of freedom   507
 Full point group                 C1      NOp   1
 Largest Abelian subgroup         C1      NOp   1
 Largest concise Abelian subgroup C1      NOp   1
                         Standard orientation:                         
 ---------------------------------------------------------------------
 Center     Atomic      Atomic             Coordinates (Angstroms)
 Number     Number       Type             X           Y           Z
 ---------------------------------------------------------------------
      1          6           0       -0.357460   -0.952260    0.649048
      2          6           0       -0.133737   -2.141409    0.671164
      3          1           0        0.055687   -3.196275    0.702433
      4          6           0       -0.605892    0.496718    0.528800
      5          1           0       -1.377332    0.794035    1.246070
      6          1           0       -1.012016    0.688388   -0.471936
      7          7           0        0.549760    1.357426    0.724667
      8          1           0        1.318716    1.059347    0.126660
      9          6           0        0.992282    1.542338    2.106536
     10          6           0        2.369871    0.992778    2.420207
     11          6           0        2.894520   -0.250928    2.082465
     12          6           0        3.124785    1.916810    3.147153
     13          6           0        4.208428   -0.549925    2.447573
     14          1           0        2.288341   -0.979323    1.544220
     15          1           0        4.622215   -1.524317    2.204371
     16          6           0        4.988374    0.392673    3.124070
     17          1           0        6.015075    0.153871    3.386402
     18          6           0        4.446659    1.631093    3.486260
     19          1           0        5.046300    2.353476    4.034572
     20          6           0        2.290337    3.131450    3.484894
     21          1           0        1.927988    3.045483    4.517506
     22          1           0        2.846367    4.070865    3.411980
     23          6           0        1.129115    3.039863    2.477234
     24          1           0        1.392295    3.578442    1.559818
     25          1           0        0.189397    3.455896    2.854253
     26          1           0        0.255728    1.058502    2.764996
     27          6           0        6.947904   -1.644109    0.237982
     28          6           0        6.922224   -2.556097   -0.987438
     29          1           0        7.895721   -2.555679   -1.494647
     30          1           0        6.676819   -3.587551   -0.717637
     31          1           0        6.164662   -2.224263   -1.705980
     32          6           0        7.919714   -2.141969    1.313803
     33          1           0        8.940137   -2.141371    0.904206
     34          1           0        7.921089   -1.417620    2.139720
     35          6           0        7.581747   -3.527046    1.863854
     36          1           0        8.207381   -3.772908    2.726958
     37          1           0        6.533316   -3.572634    2.182091
     38          1           0        7.732831   -4.308709    1.113852
     39          6           0        6.134101    0.237130   -3.781505
     40          6           0        4.819637    0.928934   -3.429668
     41          1           0        4.922163    1.470285   -2.479653
     42          1           0        4.590393    1.688656   -4.184208
     43          6           0        3.641045   -0.050010   -3.363632
     44          1           0        2.689553    0.485721   -3.281178
     45          1           0        3.597481   -0.655677   -4.273447
     46          6           0        3.689890   -1.014146   -2.197024
     47          8           0        3.531470   -2.243496   -2.353898
     48          7           0        3.894016   -0.492682   -0.984520
     49          1           0        4.058812    0.493996   -0.806155
     50          1           0        3.888503   -1.111769   -0.179837
     51          6           0        2.603386    7.957258   -1.276505
     52          6           0        1.720801    6.952701   -0.527763
     53          1           0        1.419550    7.377481    0.437360
     54          1           0        0.800203    6.777430   -1.095666
     55          6           0        2.429801    5.637676   -0.304804
     56          6           0        3.379363    5.500108    0.712812
     57          1           0        3.575743    6.338914    1.377184
     58          6           0        4.086070    4.314671    0.890152
     59          1           0        4.827602    4.220966    1.679911
     60          6           0        3.832234    3.232388    0.048811
     61          8           0        4.518154    2.051524    0.162102
     62          1           0        4.825469    1.921248    1.078127
     63          6           0        2.884147    3.341616   -0.966175
     64          1           0        2.681152    2.486482   -1.606861
     65          6           0        2.197079    4.539942   -1.138226
     66          1           0        1.452184    4.616202   -1.927166
     67          6           0       -1.167166    5.292137    0.889819
     68          6           0       -2.016637    4.068818    0.533264
     69          1           0       -1.559731    3.174686    0.975927
     70          1           0       -3.010667    4.173920    0.979623
     71          6           0       -2.139531    3.885602   -0.958944
     72          6           0       -3.206300    4.450511   -1.665613
     73          1           0       -3.969059    5.005575   -1.122542
     74          6           0       -3.304972    4.307206   -3.049367
     75          1           0       -4.143394    4.749210   -3.580459
     76          6           0       -2.333933    3.590374   -3.747772
     77          1           0       -2.413945    3.468340   -4.823623
     78          6           0       -1.263341    3.027749   -3.054202
     79          1           0       -0.509476    2.452732   -3.584330
     80          6           0       -1.164315    3.179888   -1.671902
     81          1           0       -0.330068    2.741357   -1.125160
     82          6           0       -7.163622    0.256811    3.002505
     83          6           0       -7.381900    0.537671    1.521886
     84          1           0       -6.436599    0.830895    1.057053
     85          1           0       -8.106089    1.344439    1.373571
     86         16           0       -7.986081   -0.965193    0.682816
     87          6           0       -7.643365   -0.518570   -1.057967
     88          1           0       -8.159489    0.412783   -1.297534
     89          1           0       -8.110306   -1.313947   -1.645377
     90          6           0       -6.168217   -0.441877   -1.371121
     91          6           0       -5.447712   -1.631993   -1.394337
     92          6           0       -4.078928   -1.635136   -1.687673
     93          1           0       -5.970423   -2.558578   -1.182598
     94          6           0       -5.528817    0.799304   -1.621937
     95          6           0       -6.288476    2.103072   -1.635923
     96          1           0       -7.025140    2.124507   -2.446287
     97          1           0       -6.828648    2.276669   -0.699679
     98          1           0       -5.597101    2.935058   -1.787226
     99          6           0       -4.168372    0.793178   -1.884012
    100          1           0       -3.625429    1.717579   -2.069694
    101          6           0       -3.433996   -0.401941   -1.927927
    102          7           0       -2.087852   -0.337814   -2.188324
    103          6           0       -1.426466   -1.441513   -2.239366
    104          6           0        0.057760   -1.372967   -2.411751
    105          8           0        0.685900   -0.330801   -2.353232
    106          7           0        0.630574   -2.591159   -2.642332
    107          1           0        1.647567   -2.610389   -2.770218
    108          6           0       -0.033794   -3.831055   -2.675564
    109          8           0        0.587894   -4.817290   -3.025527
    110          7           0       -1.358032   -3.889655   -2.293639
    111          6           0       -2.011055   -2.775731   -2.102812
    112          7           0       -3.336677   -2.805031   -1.772020
    113          6           0       -3.996880   -4.089042   -1.533528
    114          6           0       -4.654081   -2.970415    2.189489
    115          6           0       -3.271502   -2.350730    1.970398
    116          1           0       -2.517846   -2.899144    2.546899
    117          1           0       -2.980130   -2.454334    0.915896
    118          6           0       -3.216403   -0.892559    2.355809
    119          6           0       -3.910989    0.065997    1.609988
    120          1           0       -4.483278   -0.254869    0.741815
    121          6           0       -3.883733    1.415237    1.945055
    122          1           0       -4.416264    2.154101    1.351193
    123          6           0       -3.149960    1.834325    3.058478
    124          8           0       -3.159508    3.162788    3.362984
    125          1           0       -2.604614    3.318816    4.141953
    126          6           0       -2.443388    0.896348    3.812093
    127          1           0       -1.865447    1.219299    4.675112
    128          6           0       -2.482331   -0.451506    3.456992
    129          1           0       -1.920615   -1.170547    4.048037
    130          6           0       -1.834386   -5.797743    1.014976
    131          6           0       -0.570046   -6.331481    1.699033
    132          1           0       -0.699919   -6.315673    2.786547
    133          1           0       -0.425320   -7.380943    1.414616
    134          6           0        0.654507   -5.527022    1.326258
    135          6           0        1.390461   -4.811089    2.274742
    136          1           0        1.099705   -4.858208    3.321456
    137          6           0        2.477836   -4.019243    1.908359
    138          1           0        3.033647   -3.453836    2.650811
    139          6           0        2.848524   -3.935148    0.566210
    140          8           0        3.908059   -3.150357    0.219180
    141          1           0        3.904407   -3.043009   -0.763928
    142          6           0        2.139479   -4.658632   -0.395207
    143          1           0        2.428798   -4.605303   -1.440861
    144          6           0        1.055691   -5.439660   -0.012131
    145          1           0        0.508684   -5.976060   -0.783680
    146          1           0       -6.822603    1.166596    3.504927
    147          1           0       -6.399121   -0.514045    3.138573
    148          1           0       -8.087350   -0.075947    3.485294
    149          1           0       -4.380558   -4.112227   -0.509482
    150          1           0       -3.263605   -4.876655   -1.676495
    151          1           0       -4.820322   -4.214062   -2.239992
    152          1           0       -0.142799    5.164293    0.524197
    153          1           0       -1.127126    5.435703    1.974594
    154          1           0       -1.580317    6.200319    0.437229
    155          1           0        2.891196    7.560734   -2.255034
    156          1           0        3.520480    8.161034   -0.714657
    157          1           0        2.078862    8.904800   -1.429951
    158          6           0        7.269157   -0.201412   -0.149311
    159          1           0        5.942191   -1.661710    0.673537
    160          1           0        8.262038   -0.135228   -0.612049
    161          1           0        7.263869    0.452274    0.731368
    162          1           0        6.536227    0.192256   -0.861277
    163          1           0       -1.724675   -5.822918   -0.074063
    164          1           0       -2.017626   -4.755954    1.300946
    165          1           0       -2.714297   -6.389536    1.286216
    166          1           0        6.963495    0.949728   -3.804424
    167          1           0        6.066605   -0.240363   -4.764397
    168          1           0        6.383438   -0.539411   -3.051098
    169          1           0       -5.411797   -2.467503    1.576271
    170          1           0       -4.958889   -2.879459    3.237394
    171          1           0       -4.653004   -4.034943    1.929628
 ---------------------------------------------------------------------
 Rotational constants (GHZ):           0.0316943           0.0220786           0.0173283
 Leave Link  202 at Fri Mar 25 21:43:22 2022, MaxMem=  4294967296 cpu:               4.7 elap:               0.1
 (Enter /share/apps/g16/l301.exe)
 Standard basis: 6-311++G(d,p) (5D, 7F)
 Ernie: Thresh=  0.10000D-02 Tol=  0.10000D-05 Strict=F.
 There are  2501 symmetry adapted cartesian basis functions of A   symmetry.
 There are  2420 symmetry adapted basis functions of A   symmetry.
  2420 basis functions,  3740 primitive gaussians,  2501 cartesian basis functions
   302 alpha electrons      302 beta electrons
       nuclear repulsion energy     16328.5715765222 Hartrees.
 IExCor= 1009 DFT=T Ex+Corr=PBE1PBE ExCW=0 ScaHFX=  0.250000
 ScaDFX=  0.750000  0.750000  1.000000  1.000000 ScalE2=  1.000000  1.000000
 IRadAn=      5 IRanWt=     -1 IRanGd=            0 ICorTp=0 IEmpDi=  4
 NAtoms=  171 NActive=  171 NUniq=  171 SFac= 1.00D+00 NAtFMM=   60 NAOKFM=T Big=T
 Integral buffers will be    131072 words long.
 Raffenetti 2 integral format.
 Two-electron integral symmetry is turned on.
 Using the following non-standard input for PCM:
 eps=4.0
 --- end of non-standard input.
 ------------------------------------------------------------------------------
 Polarizable Continuum Model (PCM)
 =================================
 Model                : C-PCM.
 Atomic radii         : UFF (Universal Force Field).
 Polarization charges : Total charges.
 Charge compensation  : None.
 Solution method      : On-the-fly selection.
 Cavity type          : Scaled VdW (van der Waals Surface) (Alpha=1.100).
 Cavity algorithm     : GePol (No added spheres)
                        Default sphere list used, NSphG=  171.
                        Lebedev-Laikov grids with approx.  5.0 points / Ang**2.
                        Smoothing algorithm: York/Karplus (Gamma=1.0000).
                        Polarization charges: spherical gaussians, with
                                              point-specific exponents (IZeta= 3).
                        Self-potential: point-specific (ISelfS= 7).
                        Self-field    : sphere-specific E.n sum rule (ISelfD= 2).
 Solvent              : Water, Eps=   4.000000 Eps(inf)=   1.777849
 ------------------------------------------------------------------------------
 GePol: Number of generator spheres                  =     171
 GePol: Total number of spheres                      =     171
 GePol: Number of exposed spheres                    =     171 (100.00%)
 GePol: Number of points                             =    8898
 GePol: Average weight of points                     =       0.12
 GePol: Minimum weight of points                     =   0.69D-11
 GePol: Maximum weight of points                     =    0.20577
 GePol: Number of points with low weight             =     838
 GePol: Fraction of low-weight points (<1% of avg)   =       9.42%
 GePol: Cavity surface area                          =   1059.119 Ang**2
 GePol: Cavity volume                                =   1590.966 Ang**3
 Leave Link  301 at Fri Mar 25 21:43:22 2022, MaxMem=  4294967296 cpu:               5.6 elap:               0.1
 (Enter /share/apps/g16/l302.exe)
 NPDir=0 NMtPBC=     1 NCelOv=     1 NCel=       1 NClECP=     1 NCelD=      1
         NCelK=      1 NCelE2=     1 NClLst=     1 CellRange=     0.0.
 One-electron integrals computed using PRISM.
 One-electron integral symmetry used in STVInt
 NBasis=  2420 RedAO= T EigKep=  1.04D-06  NBF=  2420
 NBsUse=  2379 1.00D-06 EigRej=  9.86D-07 NBFU=  2379
 Precomputing XC quadrature grid using
 IXCGrd= 4 IRadAn=           5 IRanWt=          -1 IRanGd=           0 AccXCQ= 0.00D+00.
 Generated NRdTot=       0 NPtTot=           0 NUsed=           0 NTot=          32
 NSgBfM=  2095  2079  2081  2088  2095 MxSgAt=   171 MxSgA2=   171.
 Leave Link  302 at Fri Mar 25 21:43:46 2022, MaxMem=  4294967296 cpu:            1565.2 elap:              24.5
 (Enter /share/apps/g16/l303.exe)
 DipDrv:  MaxL=1.
 Leave Link  303 at Fri Mar 25 21:43:48 2022, MaxMem=  4294967296 cpu:              68.4 elap:               1.5
 (Enter /share/apps/g16/l401.exe)
 ExpMin= 3.60D-02 ExpMax= 9.34D+04 ExpMxC= 3.17D+03 IAcc=3 IRadAn=         5 AccDes= 0.00D+00
 Harris functional with IExCor= 1009 and IRadAn=       5 diagonalized for initial guess.
 HarFok:  IExCor= 1009 AccDes= 0.00D+00 IRadAn=         5 IDoV= 1 UseB2=F ITyADJ=14
 ICtDFT=  3500011 ScaDFX=  1.000000  1.000000  1.000000  1.000000
 FoFCou: FMM=F IPFlag=           0 FMFlag=      100000 FMFlg1=        2001
         NFxFlg=           0 DoJE=T BraDBF=F KetDBF=T FulRan=T
         wScrn=  0.000000 ICntrl=       500 IOpCl=  0 I1Cent=   200000004 NGrid=           0
         NMat0=    1 NMatS0=      1 NMatT0=    0 NMatD0=    1 NMtDS0=    0 NMtDT0=    0
 Petite list used in FoFCou.
 Harris En= -3821.40613734105    
 JPrj=0 DoOrth=F DoCkMO=F.
 Leave Link  401 at Fri Mar 25 21:44:27 2022, MaxMem=  4294967296 cpu:            2468.1 elap:              38.8
 (Enter /share/apps/g16/l502.exe)
 Integral symmetry usage will be decided dynamically.
 Closed shell SCF:
 Using DIIS extrapolation, IDIIS=  1040.
 NGot=  4294967296 LenX=  4282273394 LenY=  4276015892
 Requested convergence on RMS density matrix=1.00D-08 within  32 cycles.
 Requested convergence on MAX density matrix=1.00D-06.
 Requested convergence on             energy=1.00D-06.
 No special actions if energy rises.
 Fock matrices will be formed incrementally for  20 cycles.

 Cycle   1  Pass 1  IDiag  1:
 FoFJK:  IHMeth= 1 ICntrl=       0 DoSepK=F KAlg= 0 I1Cent=           0 FoldK=F
 IRaf= 750000000 NMat=       1 IRICut=       1 DoRegI=T DoRafI=F ISym2E= 0 IDoP0=0 IntGTp=1.
 FoFCou: FMM=T IPFlag=           0 FMFlag=      100000 FMFlg1=        2001
         NFxFlg=           0 DoJE=F BraDBF=F KetDBF=F FulRan=T
         wScrn=  0.000000 ICntrl=         0 IOpCl=  0 I1Cent=           0 NGrid=           0
         NMat0=    1 NMatS0=      1 NMatT0=    0 NMatD0=    1 NMtDS0=    0 NMtDT0=    0
 Symmetry not used in FoFCou.
 FMM levels:  10  Number of levels for PrismC:   9
 Inv3:  Mode=1 IEnd=   237523212.
 Iteration    1 A*A^-1 deviation from unit magnitude is 1.54D-14 for   3327.
 Iteration    1 A*A^-1 deviation from orthogonality  is 1.05D-14 for   3327   1933.
 Iteration    1 A^-1*A deviation from unit magnitude is 1.35D-14 for   8893.
 Iteration    1 A^-1*A deviation from orthogonality  is 2.45D-15 for   7326   1492.
 E= -3818.13471452679    
 DIIS: error= 1.08D-02 at cycle   1 NSaved=   1.
 NSaved= 1 IEnMin= 1 EnMin= -3818.13471452679     IErMin= 1 ErrMin= 1.08D-02
 ErrMax= 1.08D-02  0.00D+00 EMaxC= 1.00D-01 BMatC= 2.45D+00 BMatP= 2.45D+00
 IDIUse=3 WtCom= 8.92D-01 WtEn= 1.08D-01
 Coeff-Com:  0.100D+01
 Coeff-En:   0.100D+01
 Coeff:      0.100D+01
 Gap=     0.177 Goal=   None    Shift=    0.000
 GapD=    0.177 DampG=1.000 DampE=0.500 DampFc=0.5000 IDamp=-1.
 Damping current iteration by 5.00D-01
 RMSDP=1.95D-02 MaxDP=6.01D+00              OVMax= 2.74D-01

 Cycle   2  Pass 1  IDiag  1:
 RMSU=  8.98D-03    CP:  9.02D-01
 E= -3819.03049325010     Delta-E=       -0.895778723316 Rises=F Damp=T
 DIIS: error= 5.92D-03 at cycle   2 NSaved=   2.
 NSaved= 2 IEnMin= 2 EnMin= -3819.03049325010     IErMin= 2 ErrMin= 5.92D-03
 ErrMax= 5.92D-03  0.00D+00 EMaxC= 1.00D-01 BMatC= 2.15D-01 BMatP= 2.45D+00
 IDIUse=3 WtCom= 9.41D-01 WtEn= 5.92D-02
 Coeff-Com:  0.592D-01 0.941D+00
 Coeff-En:   0.142D+00 0.858D+00
 Coeff:      0.641D-01 0.936D+00
 Gap=     0.142 Goal=   None    Shift=    0.000
 RMSDP=8.23D-03 MaxDP=3.21D+00 DE=-8.96D-01 OVMax= 2.41D-01

 Cycle   3  Pass 1  IDiag  1:
 RMSU=  5.46D-03    CP:  8.27D-01  3.96D-01
 E= -3820.02556382529     Delta-E=       -0.995070575187 Rises=F Damp=F
 DIIS: error= 9.90D-03 at cycle   3 NSaved=   3.
 NSaved= 3 IEnMin= 3 EnMin= -3820.02556382529     IErMin= 2 ErrMin= 5.92D-03
 ErrMax= 9.90D-03  0.00D+00 EMaxC= 1.00D-01 BMatC= 2.92D-01 BMatP= 2.15D-01
 IDIUse=3 WtCom= 9.13D-02 WtEn= 9.09D-01
 Coeff-Com: -0.373D-01 0.561D+00 0.477D+00
 Coeff-En:   0.000D+00 0.000D+00 0.100D+01
 Coeff:     -0.341D-02 0.512D-01 0.952D+00
 Gap=     0.111 Goal=   None    Shift=    0.000
 RMSDP=1.26D-02 MaxDP=4.06D+00 DE=-9.95D-01 OVMax= 3.03D-01

 Cycle   4  Pass 1  IDiag  1:
 RMSU=  6.50D-03    CP:  8.48D-01  1.42D+00 -1.31D-02
 E= -3819.10279640182     Delta-E=        0.922767423464 Rises=F Damp=F
 DIIS: error= 2.64D-02 at cycle   4 NSaved=   4.
 NSaved= 4 IEnMin= 3 EnMin= -3820.02556382529     IErMin= 2 ErrMin= 5.92D-03
 ErrMax= 2.64D-02  0.00D+00 EMaxC= 1.00D-01 BMatC= 1.40D+00 BMatP= 2.15D-01
 IDIUse=2 WtCom= 0.00D+00 WtEn= 1.00D+00
 Coeff-En:   0.000D+00 0.000D+00 0.771D+00 0.229D+00
 Coeff:      0.000D+00 0.000D+00 0.771D+00 0.229D+00
 Gap=     0.140 Goal=   None    Shift=    0.000
 RMSDP=6.24D-03 MaxDP=1.80D+00 DE= 9.23D-01 OVMax= 1.72D-01

 Cycle   5  Pass 1  IDiag  1:
 RMSU=  1.79D-03    CP:  8.13D-01  9.53D-01  3.79D-01  4.70D-01
 E= -3820.19719450862     Delta-E=       -1.094398106801 Rises=F Damp=F
 DIIS: error= 5.58D-03 at cycle   5 NSaved=   5.
 NSaved= 5 IEnMin= 5 EnMin= -3820.19719450862     IErMin= 5 ErrMin= 5.58D-03
 ErrMax= 5.58D-03  0.00D+00 EMaxC= 1.00D-01 BMatC= 8.80D-02 BMatP= 2.15D-01
 IDIUse=3 WtCom= 9.44D-01 WtEn= 5.58D-02
 Coeff-Com:  0.376D-02 0.363D-02 0.308D+00-0.423D-01 0.727D+00
 Coeff-En:   0.000D+00 0.000D+00 0.281D+00 0.000D+00 0.719D+00
 Coeff:      0.355D-02 0.343D-02 0.306D+00-0.399D-01 0.727D+00
 Gap=     0.121 Goal=   None    Shift=    0.000
 RMSDP=2.33D-03 MaxDP=6.69D-01 DE=-1.09D+00 OVMax= 5.19D-02

 Cycle   6  Pass 1  IDiag  1:
 RMSU=  6.34D-04    CP:  8.11D-01  7.71D-01  5.78D-01  3.08D-01  8.74D-01
 E= -3820.26898073987     Delta-E=       -0.071786231249 Rises=F Damp=F
 DIIS: error= 5.17D-04 at cycle   6 NSaved=   6.
 NSaved= 6 IEnMin= 6 EnMin= -3820.26898073987     IErMin= 6 ErrMin= 5.17D-04
 ErrMax= 5.17D-04  0.00D+00 EMaxC= 1.00D-01 BMatC= 2.52D-03 BMatP= 8.80D-02
 IDIUse=3 WtCom= 9.95D-01 WtEn= 5.17D-03
 Coeff-Com:  0.159D-02-0.165D-02 0.151D+00-0.514D-01 0.483D+00 0.418D+00
 Coeff-En:   0.000D+00 0.000D+00 0.000D+00 0.000D+00 0.000D+00 0.100D+01
 Coeff:      0.159D-02-0.164D-02 0.150D+00-0.512D-01 0.480D+00 0.421D+00
 Gap=     0.121 Goal=   None    Shift=    0.000
 RMSDP=3.52D-04 MaxDP=1.32D-01 DE=-7.18D-02 OVMax= 8.02D-03

 Cycle   7  Pass 1  IDiag  1:
 RMSU=  1.39D-04    CP:  8.09D-01  7.75D-01  5.68D-01  3.12D-01  8.93D-01
                    CP:  5.25D-01
 E= -3820.27116214323     Delta-E=       -0.002181403361 Rises=F Damp=F
 DIIS: error= 1.44D-04 at cycle   7 NSaved=   7.
 NSaved= 7 IEnMin= 7 EnMin= -3820.27116214323     IErMin= 7 ErrMin= 1.44D-04
 ErrMax= 1.44D-04  0.00D+00 EMaxC= 1.00D-01 BMatC= 7.55D-05 BMatP= 2.52D-03
 IDIUse=3 WtCom= 9.99D-01 WtEn= 1.44D-03
 Coeff-Com:  0.572D-03-0.474D-03 0.499D-01-0.213D-01 0.164D+00 0.166D+00
 Coeff-Com:  0.642D+00
 Coeff-En:   0.000D+00 0.000D+00 0.000D+00 0.000D+00 0.000D+00 0.000D+00
 Coeff-En:   0.100D+01
 Coeff:      0.571D-03-0.473D-03 0.498D-01-0.213D-01 0.163D+00 0.165D+00
 Coeff:      0.643D+00
 Gap=     0.122 Goal=   None    Shift=    0.000
 RMSDP=9.08D-05 MaxDP=3.65D-02 DE=-2.18D-03 OVMax= 2.34D-03

 Cycle   8  Pass 1  IDiag  1:
 RMSU=  7.19D-05    CP:  8.09D-01  7.72D-01  5.72D-01  3.08D-01  8.98D-01
                    CP:  4.94D-01  8.72D-01
 E= -3820.27121834599     Delta-E=       -0.000056202756 Rises=F Damp=F
 DIIS: error= 5.75D-05 at cycle   8 NSaved=   8.
 NSaved= 8 IEnMin= 8 EnMin= -3820.27121834599     IErMin= 8 ErrMin= 5.75D-05
 ErrMax= 5.75D-05  0.00D+00 EMaxC= 1.00D-01 BMatC= 1.79D-05 BMatP= 7.55D-05
 IDIUse=1 WtCom= 1.00D+00 WtEn= 0.00D+00
 Coeff-Com:  0.205D-03-0.329D-03 0.723D-02-0.394D-02 0.182D-01 0.221D-01
 Coeff-Com:  0.385D+00 0.571D+00
 Coeff:      0.205D-03-0.329D-03 0.723D-02-0.394D-02 0.182D-01 0.221D-01
 Coeff:      0.385D+00 0.571D+00
 Gap=     0.122 Goal=   None    Shift=    0.000
 RMSDP=3.39D-05 MaxDP=1.02D-02 DE=-5.62D-05 OVMax= 8.82D-04

 Cycle   9  Pass 1  IDiag  1:
 RMSU=  1.80D-05    CP:  8.09D-01  7.71D-01  5.72D-01  3.08D-01  8.95D-01
                    CP:  5.09D-01  8.99D-01  6.56D-01
 E= -3820.27123308309     Delta-E=       -0.000014737096 Rises=F Damp=F
 DIIS: error= 2.35D-05 at cycle   9 NSaved=   9.
 NSaved= 9 IEnMin= 9 EnMin= -3820.27123308309     IErMin= 9 ErrMin= 2.35D-05
 ErrMax= 2.35D-05  0.00D+00 EMaxC= 1.00D-01 BMatC= 1.32D-06 BMatP= 1.79D-05
 IDIUse=1 WtCom= 1.00D+00 WtEn= 0.00D+00
 Coeff-Com:  0.974D-04-0.298D-03 0.492D-03-0.472D-03-0.219D-02 0.143D-03
 Coeff-Com:  0.172D+00 0.326D+00 0.504D+00
 Coeff:      0.974D-04-0.298D-03 0.492D-03-0.472D-03-0.219D-02 0.143D-03
 Coeff:      0.172D+00 0.326D+00 0.504D+00
 Gap=     0.122 Goal=   None    Shift=    0.000
 RMSDP=1.25D-05 MaxDP=5.56D-03 DE=-1.47D-05 OVMax= 4.81D-04

 Cycle  10  Pass 1  IDiag  1:
 RMSU=  7.30D-06    CP:  8.09D-01  7.71D-01  5.72D-01  3.08D-01  8.96D-01
                    CP:  5.07D-01  9.22D-01  7.34D-01  6.72D-01
 E= -3820.27123427940     Delta-E=       -0.000001196309 Rises=F Damp=F
 DIIS: error= 6.98D-06 at cycle  10 NSaved=  10.
 NSaved=10 IEnMin=10 EnMin= -3820.27123427940     IErMin=10 ErrMin= 6.98D-06
 ErrMax= 6.98D-06  0.00D+00 EMaxC= 1.00D-01 BMatC= 1.40D-07 BMatP= 1.32D-06
 IDIUse=1 WtCom= 1.00D+00 WtEn= 0.00D+00
 Coeff-Com:  0.224D-04-0.106D-03-0.601D-03 0.180D-03-0.295D-02-0.134D-02
 Coeff-Com:  0.455D-01 0.102D+00 0.273D+00 0.584D+00
 Coeff:      0.224D-04-0.106D-03-0.601D-03 0.180D-03-0.295D-02-0.134D-02
 Coeff:      0.455D-01 0.102D+00 0.273D+00 0.584D+00
 Gap=     0.122 Goal=   None    Shift=    0.000
 RMSDP=3.07D-06 MaxDP=4.24D-04 DE=-1.20D-06 OVMax= 1.15D-04

 Cycle  11  Pass 1  IDiag  1:
 RMSU=  2.25D-06    CP:  8.09D-01  7.71D-01  5.72D-01  3.08D-01  8.96D-01
                    CP:  5.07D-01  9.25D-01  7.30D-01  7.00D-01  8.10D-01
 E= -3820.27123439519     Delta-E=       -0.000000115797 Rises=F Damp=F
 DIIS: error= 2.73D-06 at cycle  11 NSaved=  11.
 NSaved=11 IEnMin=11 EnMin= -3820.27123439519     IErMin=11 ErrMin= 2.73D-06
 ErrMax= 2.73D-06  0.00D+00 EMaxC= 1.00D-01 BMatC= 2.24D-08 BMatP= 1.40D-07
 IDIUse=1 WtCom= 1.00D+00 WtEn= 0.00D+00
 Coeff-Com: -0.207D-05-0.186D-04-0.523D-03 0.191D-03-0.169D-02-0.615D-03
 Coeff-Com:  0.670D-02 0.219D-01 0.100D+00 0.320D+00 0.554D+00
 Coeff:     -0.207D-05-0.186D-04-0.523D-03 0.191D-03-0.169D-02-0.615D-03
 Coeff:      0.670D-02 0.219D-01 0.100D+00 0.320D+00 0.554D+00
 Gap=     0.122 Goal=   None    Shift=    0.000
 RMSDP=1.48D-06 MaxDP=2.57D-04 DE=-1.16D-07 OVMax= 4.98D-05

 Cycle  12  Pass 1  IDiag  1:
 RMSU=  8.26D-07    CP:  8.09D-01  7.71D-01  5.72D-01  3.08D-01  8.96D-01
                    CP:  5.07D-01  9.25D-01  7.38D-01  7.09D-01  8.94D-01
                    CP:  9.61D-01
 E= -3820.27123441635     Delta-E=       -0.000000021162 Rises=F Damp=F
 DIIS: error= 1.01D-06 at cycle  12 NSaved=  12.
 NSaved=12 IEnMin=12 EnMin= -3820.27123441635     IErMin=12 ErrMin= 1.01D-06
 ErrMax= 1.01D-06  0.00D+00 EMaxC= 1.00D-01 BMatC= 3.56D-09 BMatP= 2.24D-08
 IDIUse=1 WtCom= 1.00D+00 WtEn= 0.00D+00
 Coeff-Com: -0.594D-05 0.882D-05-0.241D-03 0.791D-04-0.543D-03-0.656D-05
 Coeff-Com: -0.192D-02-0.122D-02 0.205D-01 0.940D-01 0.318D+00 0.572D+00
 Coeff:     -0.594D-05 0.882D-05-0.241D-03 0.791D-04-0.543D-03-0.656D-05
 Coeff:     -0.192D-02-0.122D-02 0.205D-01 0.940D-01 0.318D+00 0.572D+00
 Gap=     0.122 Goal=   None    Shift=    0.000
 RMSDP=4.41D-07 MaxDP=9.77D-05 DE=-2.12D-08 OVMax= 1.63D-05

 Cycle  13  Pass 1  IDiag  1:
 RMSU=  3.09D-07    CP:  8.09D-01  7.71D-01  5.72D-01  3.08D-01  8.96D-01
                    CP:  5.07D-01  9.25D-01  7.38D-01  7.20D-01  8.94D-01
                    CP:  9.72D-01  9.07D-01
 E= -3820.27123441972     Delta-E=       -0.000000003369 Rises=F Damp=F
 DIIS: error= 2.37D-07 at cycle  13 NSaved=  13.
 NSaved=13 IEnMin=13 EnMin= -3820.27123441972     IErMin=13 ErrMin= 2.37D-07
 ErrMax= 2.37D-07  0.00D+00 EMaxC= 1.00D-01 BMatC= 4.30D-10 BMatP= 3.56D-09
 IDIUse=1 WtCom= 1.00D+00 WtEn= 0.00D+00
 Coeff-Com: -0.343D-05 0.767D-05-0.725D-04 0.235D-04-0.102D-03 0.695D-04
 Coeff-Com: -0.182D-02-0.368D-02-0.351D-02-0.155D-02 0.902D-01 0.314D+00
 Coeff-Com:  0.606D+00
 Coeff:     -0.343D-05 0.767D-05-0.725D-04 0.235D-04-0.102D-03 0.695D-04
 Coeff:     -0.182D-02-0.368D-02-0.351D-02-0.155D-02 0.902D-01 0.314D+00
 Coeff:      0.606D+00
 Gap=     0.122 Goal=   None    Shift=    0.000
 RMSDP=2.02D-07 MaxDP=5.42D-05 DE=-3.37D-09 OVMax= 5.56D-06

 Cycle  14  Pass 1  IDiag  1:
 RMSU=  1.18D-07    CP:  8.09D-01  7.71D-01  5.72D-01  3.08D-01  8.96D-01
                    CP:  5.07D-01  9.25D-01  7.39D-01  7.21D-01  9.06D-01
                    CP:  1.01D+00  9.41D-01  9.03D-01
 E= -3820.27123441892     Delta-E=        0.000000000808 Rises=F Damp=F
 DIIS: error= 1.07D-07 at cycle  14 NSaved=  14.
 NSaved=14 IEnMin=13 EnMin= -3820.27123441972     IErMin=14 ErrMin= 1.07D-07
 ErrMax= 1.07D-07  0.00D+00 EMaxC= 1.00D-01 BMatC= 5.87D-11 BMatP= 4.30D-10
 IDIUse=1 WtCom= 1.00D+00 WtEn= 0.00D+00
 Coeff-Com: -0.113D-05 0.313D-05-0.782D-05 0.194D-05 0.164D-04 0.352D-04
 Coeff-Com: -0.621D-03-0.178D-02-0.453D-02-0.155D-01 0.498D-02 0.880D-01
 Coeff-Com:  0.344D+00 0.585D+00
 Coeff:     -0.113D-05 0.313D-05-0.782D-05 0.194D-05 0.164D-04 0.352D-04
 Coeff:     -0.621D-03-0.178D-02-0.453D-02-0.155D-01 0.498D-02 0.880D-01
 Coeff:      0.344D+00 0.585D+00
 Gap=     0.122 Goal=   None    Shift=    0.000
 RMSDP=8.27D-08 MaxDP=1.63D-05 DE= 8.08D-10 OVMax= 3.95D-06

 Cycle  15  Pass 1  IDiag  1:
 RMSU=  4.51D-08    CP:  8.09D-01  7.71D-01  5.72D-01  3.08D-01  8.96D-01
                    CP:  5.07D-01  9.25D-01  7.39D-01  7.21D-01  9.09D-01
                    CP:  1.02D+00  9.78D-01  9.61D-01  8.24D-01
 E= -3820.27123442134     Delta-E=       -0.000000002427 Rises=F Damp=F
 DIIS: error= 4.13D-08 at cycle  15 NSaved=  15.
 NSaved=15 IEnMin=15 EnMin= -3820.27123442134     IErMin=15 ErrMin= 4.13D-08
 ErrMax= 4.13D-08  0.00D+00 EMaxC= 1.00D-01 BMatC= 9.31D-12 BMatP= 5.87D-11
 IDIUse=1 WtCom= 1.00D+00 WtEn= 0.00D+00
 Coeff-Com: -0.240D-06 0.878D-06 0.574D-05-0.212D-05 0.275D-04 0.130D-04
 Coeff-Com: -0.166D-03-0.710D-03-0.241D-02-0.100D-01-0.805D-02 0.141D-01
 Coeff-Com:  0.134D+00 0.358D+00 0.515D+00
 Coeff:     -0.240D-06 0.878D-06 0.574D-05-0.212D-05 0.275D-04 0.130D-04
 Coeff:     -0.166D-03-0.710D-03-0.241D-02-0.100D-01-0.805D-02 0.141D-01
 Coeff:      0.134D+00 0.358D+00 0.515D+00
 Gap=     0.122 Goal=   None    Shift=    0.000
 RMSDP=2.79D-08 MaxDP=8.30D-06 DE=-2.43D-09 OVMax= 7.06D-07

 Cycle  16  Pass 1  IDiag  1:
 RMSU=  1.66D-08    CP:  8.09D-01  7.71D-01  5.72D-01  3.08D-01  8.96D-01
                    CP:  5.07D-01  9.25D-01  7.39D-01  7.21D-01  9.09D-01
                    CP:  1.02D+00  9.84D-01  9.89D-01  8.86D-01  8.41D-01
 E= -3820.27123441847     Delta-E=        0.000000002870 Rises=F Damp=F
 DIIS: error= 1.07D-08 at cycle  16 NSaved=  16.
 NSaved=16 IEnMin=15 EnMin= -3820.27123442134     IErMin=16 ErrMin= 1.07D-08
 ErrMax= 1.07D-08  0.00D+00 EMaxC= 1.00D-01 BMatC= 8.83D-13 BMatP= 9.31D-12
 IDIUse=1 WtCom= 1.00D+00 WtEn= 0.00D+00
 Coeff-Com:  0.322D-07 0.292D-07 0.388D-05-0.121D-05 0.108D-04-0.107D-05
 Coeff-Com:  0.245D-05-0.133D-03-0.566D-03-0.321D-02-0.421D-02-0.389D-02
 Coeff-Com:  0.257D-01 0.116D+00 0.259D+00 0.611D+00
 Coeff:      0.322D-07 0.292D-07 0.388D-05-0.121D-05 0.108D-04-0.107D-05
 Coeff:      0.245D-05-0.133D-03-0.566D-03-0.321D-02-0.421D-02-0.389D-02
 Coeff:      0.257D-01 0.116D+00 0.259D+00 0.611D+00
 Gap=     0.122 Goal=   None    Shift=    0.000
 RMSDP=1.29D-08 MaxDP=6.08D-06 DE= 2.87D-09 OVMax= 5.03D-07

 Cycle  17  Pass 1  IDiag  1:
 RMSU=  6.56D-09    CP:  8.09D-01  7.71D-01  5.72D-01  3.08D-01  8.96D-01
                    CP:  5.07D-01  9.26D-01  7.39D-01  7.21D-01  9.09D-01
                    CP:  1.02D+00  9.87D-01  9.95D-01  9.04D-01  8.79D-01
                    CP:  8.78D-01
 E= -3820.27123441774     Delta-E=        0.000000000731 Rises=F Damp=F
 DIIS: error= 5.20D-09 at cycle  17 NSaved=  17.
 NSaved=17 IEnMin=15 EnMin= -3820.27123442134     IErMin=17 ErrMin= 5.20D-09
 ErrMax= 5.20D-09  0.00D+00 EMaxC= 1.00D-01 BMatC= 1.65D-13 BMatP= 8.83D-13
 IDIUse=1 WtCom= 1.00D+00 WtEn= 0.00D+00
 Coeff-Com:  0.672D-07-0.137D-06 0.102D-05-0.255D-06 0.697D-06-0.371D-05
 Coeff-Com:  0.293D-04 0.514D-04 0.169D-03 0.106D-03-0.413D-03-0.435D-02
 Coeff-Com: -0.104D-01-0.369D-02 0.289D-01 0.327D+00 0.663D+00
 Coeff:      0.672D-07-0.137D-06 0.102D-05-0.255D-06 0.697D-06-0.371D-05
 Coeff:      0.293D-04 0.514D-04 0.169D-03 0.106D-03-0.413D-03-0.435D-02
 Coeff:     -0.104D-01-0.369D-02 0.289D-01 0.327D+00 0.663D+00
 Gap=     0.122 Goal=   None    Shift=    0.000
 RMSDP=4.36D-09 MaxDP=7.46D-07 DE= 7.31D-10 OVMax= 2.05D-07

 Error on total polarization charges =  0.02356
 SCF Done:  E(RPBE1PBE) =  -3820.27123442     A.U. after   17 cycles
            NFock= 17  Conv=0.44D-08     -V/T= 2.0040
 KE= 3.805088846741D+03 PE=-4.156879296306D+04 EE= 1.761486130538D+04
 Leave Link  502 at Fri Mar 25 23:36:31 2022, MaxMem=  4294967296 cpu:          426660.7 elap:            6724.7
 (Enter /share/apps/g16/l508.exe)
 QCSCF skips out because SCF is already converged.
 Leave Link  508 at Fri Mar 25 23:36:31 2022, MaxMem=  4294967296 cpu:               2.9 elap:               0.1
 (Enter /share/apps/g16/l601.exe)
 Copying SCF densities to generalized density rwf, IOpCl= 0 IROHF=0.
 Hyperfine terms turned off by default for NAtoms > 100.

 **********************************************************************

            Population analysis using the SCF Density.

 **********************************************************************

 Orbital symmetries:
       Occupied  (A) (A) (A) (A) (A) (A) (A) (A) (A) (A) (A) (A)
                 (A) (A) (A) (A) (A) (A) (A) (A) (A) (A) (A) (A)
                 (A) (A) (A) (A) (A) (A) (A) (A) (A) (A) (A) (A)
                 (A) (A) (A) (A) (A) (A) (A) (A) (A) (A) (A) (A)
                 (A) (A) (A) (A) (A) (A) (A) (A) (A) (A) (A) (A)
                 (A) (A) (A) (A) (A) (A) (A) (A) (A) (A) (A) (A)
                 (A) (A) (A) (A) (A) (A) (A) (A) (A) (A) (A) (A)
                 (A) (A) (A) (A) (A) (A) (A) (A) (A) (A) (A) (A)
                 (A) (A) (A) (A) (A) (A) (A) (A) (A) (A) (A) (A)
                 (A) (A) (A) (A) (A) (A) (A) (A) (A) (A) (A) (A)
                 (A) (A) (A) (A) (A) (A) (A) (A) (A) (A) (A) (A)
                 (A) (A) (A) (A) (A) (A) (A) (A) (A) (A) (A) (A)
                 (A) (A) (A) (A) (A) (A) (A) (A) (A) (A) (A) (A)
                 (A) (A) (A) (A) (A) (A) (A) (A) (A) (A) (A) (A)
                 (A) (A) (A) (A) (A) (A) (A) (A) (A) (A) (A) (A)
                 (A) (A) (A) (A) (A) (A) (A) (A) (A) (A) (A) (A)
                 (A) (A) (A) (A) (A) (A) (A) (A) (A) (A) (A) (A)
                 (A) (A) (A) (A) (A) (A) (A) (A) (A) (A) (A) (A)
                 (A) (A) (A) (A) (A) (A) (A) (A) (A) (A) (A) (A)
                 (A) (A) (A) (A) (A) (A) (A) (A) (A) (A) (A) (A)
                 (A) (A) (A) (A) (A) (A) (A) (A) (A) (A) (A) (A)
                 (A) (A) (A) (A) (A) (A) (A) (A) (A) (A) (A) (A)
                 (A) (A) (A) (A) (A) (A) (A) (A) (A) (A) (A) (A)
                 (A) (A) (A) (A) (A) (A) (A) (A) (A) (A) (A) (A)
                 (A) (A) (A) (A) (A) (A) (A) (A) (A) (A) (A) (A)
                 (A) (A)
       Virtual   (A) (A) (A) (A) (A) (A) (A) (A) (A) (A) (A) (A)
                 (A) (A) (A) (A) (A) (A) (A) (A) (A) (A) (A) (A)
                 (A) (A) (A) (A) (A) (A) (A) (A) (A) (A) (A) (A)
                 (A) (A) (A) (A) (A) (A) (A) (A) (A) (A) (A) (A)
                 (A) (A) (A) (A) (A) (A) (A) (A) (A) (A) (A) (A)
                 (A) (A) (A) (A) (A) (A) (A) (A) (A) (A) (A) (A)
                 (A) (A) (A) (A) (A) (A) (A) (A) (A) (A) (A) (A)
                 (A) (A) (A) (A) (A) (A) (A) (A) (A) (A) (A) (A)
                 (A) (A) (A) (A) (A) (A) (A) (A) (A) (A) (A) (A)
                 (A) (A) (A) (A) (A) (A) (A) (A) (A) (A) (A) (A)
                 (A) (A) (A) (A) (A) (A) (A) (A) (A) (A) (A) (A)
                 (A) (A) (A) (A) (A) (A) (A) (A) (A) (A) (A) (A)
                 (A) (A) (A) (A) (A) (A) (A) (A) (A) (A) (A) (A)
                 (A) (A) (A) (A) (A) (A) (A) (A) (A) (A) (A) (A)
                 (A) (A) (A) (A) (A) (A) (A) (A) (A) (A) (A) (A)
                 (A) (A) (A) (A) (A) (A) (A) (A) (A) (A) (A) (A)
                 (A) (A) (A) (A) (A) (A) (A) (A) (A) (A) (A) (A)
                 (A) (A) (A) (A) (A) (A) (A) (A) (A) (A) (A) (A)
                 (A) (A) (A) (A) (A) (A) (A) (A) (A) (A) (A) (A)
                 (A) (A) (A) (A) (A) (A) (A) (A) (A) (A) (A) (A)
                 (A) (A) (A) (A) (A) (A) (A) (A) (A) (A) (A) (A)
                 (A) (A) (A) (A) (A) (A) (A) (A) (A) (A) (A) (A)
                 (A) (A) (A) (A) (A) (A) (A) (A) (A) (A) (A) (A)
                 (A) (A) (A) (A) (A) (A) (A) (A) (A) (A) (A) (A)
                 (A) (A) (A) (A) (A) (A) (A) (A) (A) (A) (A) (A)
                 (A) (A) (A) (A) (A) (A) (A) (A) (A) (A) (A) (A)
                 (A) (A) (A) (A) (A) (A) (A) (A) (A) (A) (A) (A)
                 (A) (A) (A) (A) (A) (A) (A) (A) (A) (A) (A) (A)
                 (A) (A) (A) (A) (A) (A) (A) (A) (A) (A) (A) (A)
                 (A) (A) (A) (A) (A) (A) (A) (A) (A) (A) (A) (A)
                 (A) (A) (A) (A) (A) (A) (A) (A) (A) (A) (A) (A)
                 (A) (A) (A) (A) (A) (A) (A) (A) (A) (A) (A) (A)
                 (A) (A) (A) (A) (A) (A) (A) (A) (A) (A) (A) (A)
                 (A) (A) (A) (A) (A) (A) (A) (A) (A) (A) (A) (A)
                 (A) (A) (A) (A) (A) (A) (A) (A) (A) (A) (A) (A)
                 (A) (A) (A) (A) (A) (A) (A) (A) (A) (A) (A) (A)
                 (A) (A) (A) (A) (A) (A) (A) (A) (A) (A) (A) (A)
                 (A) (A) (A) (A) (A) (A) (A) (A) (A) (A) (A) (A)
                 (A) (A) (A) (A) (A) (A) (A) (A) (A) (A) (A) (A)
                 (A) (A) (A) (A) (A) (A) (A) (A) (A) (A) (A) (A)
                 (A) (A) (A) (A) (A) (A) (A) (A) (A) (A) (A) (A)
                 (A) (A) (A) (A) (A) (A) (A) (A) (A) (A) (A) (A)
                 (A) (A) (A) (A) (A) (A) (A) (A) (A) (A) (A) (A)
                 (A) (A) (A) (A) (A) (A) (A) (A) (A) (A) (A) (A)
                 (A) (A) (A) (A) (A) (A) (A) (A) (A) (A) (A) (A)
                 (A) (A) (A) (A) (A) (A) (A) (A) (A) (A) (A) (A)
                 (A) (A) (A) (A) (A) (A) (A) (A) (A) (A) (A) (A)
                 (A) (A) (A) (A) (A) (A) (A) (A) (A) (A) (A) (A)
                 (A) (A) (A) (A) (A) (A) (A) (A) (A) (A) (A) (A)
                 (A) (A) (A) (A) (A) (A) (A) (A) (A) (A) (A) (A)
                 (A) (A) (A) (A) (A) (A) (A) (A) (A) (A) (A) (A)
                 (A) (A) (A) (A) (A) (A) (A) (A) (A) (A) (A) (A)
                 (A) (A) (A) (A) (A) (A) (A) (A) (A) (A) (A) (A)
                 (A) (A) (A) (A) (A) (A) (A) (A) (A) (A) (A) (A)
                 (A) (A) (A) (A) (A) (A) (A) (A) (A) (A) (A) (A)
                 (A) (A) (A) (A) (A) (A) (A) (A) (A) (A) (A) (A)
                 (A) (A) (A) (A) (A) (A) (A) (A) (A) (A) (A) (A)
                 (A) (A) (A) (A) (A) (A) (A) (A) (A) (A) (A) (A)
                 (A) (A) (A) (A) (A) (A) (A) (A) (A) (A) (A) (A)
                 (A) (A) (A) (A) (A) (A) (A) (A) (A) (A) (A) (A)
                 (A) (A) (A) (A) (A) (A) (A) (A) (A) (A) (A) (A)
                 (A) (A) (A) (A) (A) (A) (A) (A) (A) (A) (A) (A)
                 (A) (A) (A) (A) (A) (A) (A) (A) (A) (A) (A) (A)
                 (A) (A) (A) (A) (A) (A) (A) (A) (A) (A) (A) (A)
                 (A) (A) (A) (A) (A) (A) (A) (A) (A) (A) (A) (A)
                 (A) (A) (A) (A) (A) (A) (A) (A) (A) (A) (A) (A)
                 (A) (A) (A) (A) (A) (A) (A) (A) (A) (A) (A) (A)
                 (A) (A) (A) (A) (A) (A) (A) (A) (A) (A) (A) (A)
                 (A) (A) (A) (A) (A) (A) (A) (A) (A) (A) (A) (A)
                 (A) (A) (A) (A) (A) (A) (A) (A) (A) (A) (A) (A)
                 (A) (A) (A) (A) (A) (A) (A) (A) (A) (A) (A) (A)
                 (A) (A) (A) (A) (A) (A) (A) (A) (A) (A) (A) (A)
                 (A) (A) (A) (A) (A) (A) (A) (A) (A) (A) (A) (A)
                 (A) (A) (A) (A) (A) (A) (A) (A) (A) (A) (A) (A)
                 (A) (A) (A) (A) (A) (A) (A) (A) (A) (A) (A) (A)
                 (A) (A) (A) (A) (A) (A) (A) (A) (A) (A) (A) (A)
                 (A) (A) (A) (A) (A) (A) (A) (A) (A) (A) (A) (A)
                 (A) (A) (A) (A) (A) (A) (A) (A) (A) (A) (A) (A)
                 (A) (A) (A) (A) (A) (A) (A) (A) (A) (A) (A) (A)
                 (A) (A) (A) (A) (A) (A) (A) (A) (A) (A) (A) (A)
                 (A) (A) (A) (A) (A) (A) (A) (A) (A) (A) (A) (A)
                 (A) (A) (A) (A) (A) (A) (A) (A) (A) (A) (A) (A)
                 (A) (A) (A) (A) (A) (A) (A) (A) (A) (A) (A) (A)
                 (A) (A) (A) (A) (A) (A) (A) (A) (A) (A) (A) (A)
                 (A) (A) (A) (A) (A) (A) (A) (A) (A) (A) (A) (A)
                 (A) (A) (A) (A) (A) (A) (A) (A) (A) (A) (A) (A)
                 (A) (A) (A) (A) (A) (A) (A) (A) (A) (A) (A) (A)
                 (A) (A) (A) (A) (A) (A) (A) (A) (A) (A) (A) (A)
                 (A) (A) (A) (A) (A) (A) (A) (A) (A) (A) (A) (A)
                 (A) (A) (A) (A) (A) (A) (A) (A) (A) (A) (A) (A)
                 (A) (A) (A) (A) (A) (A) (A) (A) (A) (A) (A) (A)
                 (A) (A) (A) (A) (A) (A) (A) (A) (A) (A) (A) (A)
                 (A) (A) (A) (A) (A) (A) (A) (A) (A) (A) (A) (A)
                 (A) (A) (A) (A) (A) (A) (A) (A) (A) (A) (A) (A)
                 (A) (A) (A) (A) (A) (A) (A) (A) (A) (A) (A) (A)
                 (A) (A) (A) (A) (A) (A) (A) (A) (A) (A) (A) (A)
                 (A) (A) (A) (A) (A) (A) (A) (A) (A) (A) (A) (A)
                 (A) (A) (A) (A) (A) (A) (A) (A) (A) (A) (A) (A)
                 (A) (A) (A) (A) (A) (A) (A) (A) (A) (A) (A) (A)
                 (A) (A) (A) (A) (A) (A) (A) (A) (A) (A) (A) (A)
                 (A) (A) (A) (A) (A) (A) (A) (A) (A) (A) (A) (A)
                 (A) (A) (A) (A) (A) (A) (A) (A) (A) (A) (A) (A)
                 (A) (A) (A) (A) (A) (A) (A) (A) (A) (A) (A) (A)
                 (A) (A) (A) (A) (A) (A) (A) (A) (A) (A) (A) (A)
                 (A) (A) (A) (A) (A) (A) (A) (A) (A) (A) (A) (A)
                 (A) (A) (A) (A) (A) (A) (A) (A) (A) (A) (A) (A)
                 (A) (A) (A) (A) (A) (A) (A) (A) (A) (A) (A) (A)
                 (A) (A) (A) (A) (A) (A) (A) (A) (A) (A) (A) (A)
                 (A) (A) (A) (A) (A) (A) (A) (A) (A) (A) (A) (A)
                 (A) (A) (A) (A) (A) (A) (A) (A) (A) (A) (A) (A)
                 (A) (A) (A) (A) (A) (A) (A) (A) (A) (A) (A) (A)
                 (A) (A) (A) (A) (A) (A) (A) (A) (A) (A) (A) (A)
                 (A) (A) (A) (A) (A) (A) (A) (A) (A) (A) (A) (A)
                 (A) (A) (A) (A) (A) (A) (A) (A) (A) (A) (A) (A)
                 (A) (A) (A) (A) (A) (A) (A) (A) (A) (A) (A) (A)
                 (A) (A) (A) (A) (A) (A) (A) (A) (A) (A) (A) (A)
                 (A) (A) (A) (A) (A) (A) (A) (A) (A) (A) (A) (A)
                 (A) (A) (A) (A) (A) (A) (A) (A) (A) (A) (A) (A)
                 (A) (A) (A) (A) (A) (A) (A) (A) (A) (A) (A) (A)
                 (A) (A) (A) (A) (A) (A) (A) (A) (A) (A) (A) (A)
                 (A) (A) (A) (A) (A) (A) (A) (A) (A) (A) (A) (A)
                 (A) (A) (A) (A) (A) (A) (A) (A) (A) (A) (A) (A)
                 (A) (A) (A) (A) (A) (A) (A) (A) (A) (A) (A) (A)
                 (A) (A) (A) (A) (A) (A) (A) (A) (A) (A) (A) (A)
                 (A) (A) (A) (A) (A) (A) (A) (A) (A) (A) (A) (A)
                 (A) (A) (A) (A) (A) (A) (A) (A) (A) (A) (A) (A)
                 (A) (A) (A) (A) (A) (A) (A) (A) (A) (A) (A) (A)
                 (A) (A) (A) (A) (A) (A) (A) (A) (A) (A) (A) (A)
                 (A) (A) (A) (A) (A) (A) (A) (A) (A) (A) (A) (A)
                 (A) (A) (A) (A) (A) (A) (A) (A) (A) (A) (A) (A)
                 (A) (A) (A) (A) (A) (A) (A) (A) (A) (A) (A) (A)
                 (A) (A) (A) (A) (A) (A) (A) (A) (A) (A) (A) (A)
                 (A) (A) (A) (A) (A) (A) (A) (A) (A) (A) (A) (A)
                 (A) (A) (A) (A) (A) (A) (A) (A) (A) (A) (A) (A)
                 (A) (A) (A) (A) (A) (A) (A) (A) (A) (A) (A) (A)
                 (A) (A) (A) (A) (A) (A) (A) (A) (A) (A) (A) (A)
                 (A) (A) (A) (A) (A) (A) (A) (A) (A) (A) (A) (A)
                 (A) (A) (A) (A) (A) (A) (A) (A) (A) (A) (A) (A)
                 (A) (A) (A) (A) (A) (A) (A) (A) (A) (A) (A) (A)
                 (A) (A) (A) (A) (A) (A) (A) (A) (A) (A) (A) (A)
                 (A) (A) (A) (A) (A) (A) (A) (A) (A) (A) (A) (A)
                 (A) (A) (A) (A) (A) (A) (A) (A) (A) (A) (A) (A)
                 (A) (A) (A) (A) (A) (A) (A) (A) (A) (A) (A) (A)
                 (A) (A) (A) (A) (A) (A) (A) (A) (A) (A) (A) (A)
                 (A) (A) (A) (A) (A) (A) (A) (A) (A) (A) (A) (A)
                 (A) (A) (A) (A) (A) (A) (A) (A) (A) (A) (A) (A)
                 (A) (A) (A) (A) (A) (A) (A) (A) (A) (A) (A) (A)
                 (A) (A) (A) (A) (A) (A) (A) (A) (A) (A) (A) (A)
                 (A) (A) (A) (A) (A) (A) (A) (A) (A) (A) (A) (A)
                 (A) (A) (A) (A) (A) (A) (A) (A) (A) (A) (A) (A)
                 (A) (A) (A) (A) (A) (A) (A) (A) (A) (A) (A) (A)
                 (A) (A) (A) (A) (A) (A) (A) (A) (A) (A) (A) (A)
                 (A) (A) (A) (A) (A) (A) (A) (A) (A) (A) (A) (A)
                 (A) (A) (A) (A) (A) (A) (A) (A) (A) (A) (A) (A)
                 (A) (A) (A) (A) (A) (A) (A) (A) (A) (A) (A) (A)
                 (A) (A) (A) (A) (A) (A) (A) (A) (A) (A) (A) (A)
                 (A) (A) (A) (A) (A) (A) (A) (A) (A) (A) (A) (A)
                 (A) (A) (A) (A) (A) (A) (A) (A) (A) (A) (A) (A)
                 (A) (A) (A) (A) (A) (A) (A) (A) (A) (A) (A) (A)
                 (A) (A) (A) (A) (A) (A) (A) (A) (A) (A) (A) (A)
                 (A) (A) (A) (A) (A) (A) (A) (A) (A) (A) (A) (A)
[...]
 Alpha virt. eigenvalues --    3.03792   3.03910   3.04457   3.04710   3.05023
 Alpha virt. eigenvalues --    3.05116   3.05418   3.05840   3.06098   3.06271
 Alpha virt. eigenvalues --    3.06479   3.06955   3.07213   3.07327   3.07641
 Alpha virt. eigenvalues --    3.07967   3.08333   3.08706   3.08736   3.09288
 Alpha virt. eigenvalues --    3.09444   3.09787   3.10162   3.10285   3.10608
 Alpha virt. eigenvalues --    3.10844   3.11114   3.11261   3.11681   3.11811
 Alpha virt. eigenvalues --    3.12052   3.12270   3.12679   3.13018   3.13485
 Alpha virt. eigenvalues --    3.13582   3.13942   3.14339   3.14702   3.14818
 Alpha virt. eigenvalues --    3.15515   3.15577   3.16203   3.16397   3.16967
 Alpha virt. eigenvalues --    3.17427   3.17612   3.18534   3.18687   3.19018
 Alpha virt. eigenvalues --    3.19495   3.19960   3.20017   3.20512   3.21020
 Alpha virt. eigenvalues --    3.21368   3.21536   3.21842   3.22151   3.22443
 Alpha virt. eigenvalues --    3.22709   3.23068   3.23603   3.24166   3.24820
 Alpha virt. eigenvalues --    3.24893   3.25213   3.25738   3.26351   3.26722
 Alpha virt. eigenvalues --    3.26861   3.27211   3.27352   3.27817   3.28858
 Alpha virt. eigenvalues --    3.29042   3.29278   3.29431   3.29649   3.30008
 Alpha virt. eigenvalues --    3.30285   3.30940   3.31810   3.31976   3.32099
 Alpha virt. eigenvalues --    3.32834   3.33024   3.34002   3.34198   3.35050
 Alpha virt. eigenvalues --    3.35344   3.35628   3.36544   3.38103   3.38198
 Alpha virt. eigenvalues --    3.38326   3.38831   3.39047   3.39397   3.40154
 Alpha virt. eigenvalues --    3.40440   3.41221   3.41399   3.41469   3.42307
 Alpha virt. eigenvalues --    3.42568   3.42662   3.43455   3.44230   3.44572
 Alpha virt. eigenvalues --    3.45080   3.45564   3.46197   3.46487   3.47128
 Alpha virt. eigenvalues --    3.47893   3.48655   3.49661   3.50780   3.51829
 Alpha virt. eigenvalues --    3.51941   3.52797   3.53595   3.54001   3.54305
 Alpha virt. eigenvalues --    3.55208   3.55264   3.56151   3.56452   3.56779
 Alpha virt. eigenvalues --    3.57568   3.58273   3.59093   3.60200   3.60714
 Alpha virt. eigenvalues --    3.61356   3.62272   3.63131   3.63860   3.64390
 Alpha virt. eigenvalues --    3.64951   3.65592   3.66092   3.66264   3.66882
 Alpha virt. eigenvalues --    3.67364   3.67556   3.68972   3.69260   3.69715
 Alpha virt. eigenvalues --    3.70653   3.71448   3.72252   3.72886   3.74566
 Alpha virt. eigenvalues --    3.75227   3.75845   3.76260   3.77389   3.78907
 Alpha virt. eigenvalues --    3.80396   3.80687   3.80888   3.82228   3.82427
 Alpha virt. eigenvalues --    3.82575   3.82632   3.83013   3.83091   3.83522
 Alpha virt. eigenvalues --    3.84081   3.85084   3.85179   3.85415   3.85721
 Alpha virt. eigenvalues --    3.85892   3.85944   3.86117   3.86346   3.86702
 Alpha virt. eigenvalues --    3.86869   3.87344   3.87674   3.87920   3.87974
 Alpha virt. eigenvalues --    3.88352   3.88652   3.88919   3.89354   3.89606
 Alpha virt. eigenvalues --    3.89895   3.90075   3.90356   3.91055   3.91818
 Alpha virt. eigenvalues --    3.92561   3.92848   3.93567   3.94112   3.94576
 Alpha virt. eigenvalues --    3.95980   3.97093   3.98142   3.98909   3.99738
 Alpha virt. eigenvalues --    4.00983   4.03856   4.05204   4.05941   4.06226
 Alpha virt. eigenvalues --    4.06359   4.07116   4.07605   4.07819   4.08695
 Alpha virt. eigenvalues --    4.08782   4.09222   4.11043   4.12094   4.12503
 Alpha virt. eigenvalues --    4.13386   4.14407   4.16150   4.16959   4.17801
 Alpha virt. eigenvalues --    4.21041   4.21339   4.21402   4.22019   4.22246
 Alpha virt. eigenvalues --    4.22406   4.23210   4.23602   4.24316   4.24545
 Alpha virt. eigenvalues --    4.25716   4.25856   4.26120   4.26508   4.26730
 Alpha virt. eigenvalues --    4.27577   4.27952   4.28504   4.28820   4.29392
 Alpha virt. eigenvalues --    4.29559   4.29933   4.30141   4.30858   4.32932
 Alpha virt. eigenvalues --    4.35716   4.37338   4.38140   4.38621   4.41050
 Alpha virt. eigenvalues --    4.41630   4.41697   4.42162   4.42849   4.45049
 Alpha virt. eigenvalues --    4.49329   4.56511   4.65289   4.82611   4.86746
 Alpha virt. eigenvalues --    4.87449   4.89122   4.89677   4.89827   4.89912
 Alpha virt. eigenvalues --    4.90849   4.91362   4.93053   4.98043   5.01649
 Alpha virt. eigenvalues --    5.05452   5.16737   5.21427   5.23819   5.29484
 Alpha virt. eigenvalues --    5.29615   5.30374   5.32900   5.34710   5.36924
 Alpha virt. eigenvalues --    5.42552   5.48245   5.54989   5.56003   5.64097
 Alpha virt. eigenvalues --    5.66192   5.83876   5.87100   5.89174   5.92823
 Alpha virt. eigenvalues --    5.97532   6.04367   8.11003  17.52926  17.62544
 Alpha virt. eigenvalues --   17.63586  23.80318  23.81671  23.82452  23.83040
 Alpha virt. eigenvalues --   23.84047  23.85511  23.86849  23.98294  23.98586
 Alpha virt. eigenvalues --   23.98878  23.99010  23.99242  24.01026  24.01298
 Alpha virt. eigenvalues --   24.01869  24.03323  24.03443  24.03968  24.04272
 Alpha virt. eigenvalues --   24.04474  24.05108  24.05350  24.06426  24.08826
 Alpha virt. eigenvalues --   24.09172  24.09907  24.10078  24.10652  24.11187
 Alpha virt. eigenvalues --   24.11337  24.11630  24.11710  24.11899  24.12353
 Alpha virt. eigenvalues --   24.12545  24.12688  24.13063  24.13351  24.13617
 Alpha virt. eigenvalues --   24.14002  24.14496  24.14886  24.15138  24.15438
 Alpha virt. eigenvalues --   24.15838  24.16357  24.16901  24.18284  24.18504
 Alpha virt. eigenvalues --   24.19168  24.19300  24.19937  24.21154  24.21387
 Alpha virt. eigenvalues --   24.21513  24.22080  24.22331  24.22585  24.22837
 Alpha virt. eigenvalues --   24.23018  24.24452  24.27256  24.30339  24.30420
 Alpha virt. eigenvalues --   24.30815  24.30964  24.31043  25.30404  35.70196
 Alpha virt. eigenvalues --   35.77510  35.80498  35.83011  35.84644  35.92160
 Alpha virt. eigenvalues --   50.11638  50.13994  50.14893  50.20099  50.20955
 Alpha virt. eigenvalues --   50.24462 189.49800
          Condensed to atoms (all electrons):
 Mulliken charges:
               1
     1  C    0.181972
     2  C   -0.169500
     3  H    0.474431
     4  C   -0.793864
     5  H    0.186721
     6  H    0.146342
     7  N    1.105427
     8  H   -0.216511
     9  C   -0.531526
    10  C   -0.003114
    11  C    0.038102
    12  C   -0.018323
    13  C   -0.064900
    14  H    0.027064
    15  H    0.224191
    16  C   -0.368604
    17  H    0.289510
    18  C   -0.319434
    19  H    0.231830
    20  C   -0.951049
    21  H    0.240364
    22  H    0.279697
    23  C   -0.146552
    24  H    0.006088
    25  H    0.442753
    26  H    0.372297
    27  C    1.326901
    28  C   -0.926736
    29  H    0.232427
    30  H    0.175409
    31  H    0.220484
    32  C   -0.135297
    33  H    0.217569
    34  H    0.172386
    35  C   -0.767729
    36  H    0.208872
    37  H    0.180150
    38  H    0.178071
    39  C   -1.038807
    40  C   -0.027332
    41  H    0.184088
    42  H    0.285905
    43  C   -0.288833
    44  H    0.193345
    45  H    0.285927
    46  C   -0.714044
    47  O   -0.122091
    48  N    0.022985
    49  H    0.163562
    50  H   -0.117582
    51  C   -1.078733
    52  C   -0.181160
    53  H    0.240631
    54  H    0.247447
    55  C    0.971012
    56  C   -0.763301
    57  H    0.262000
    58  C   -0.203837
    59  H    0.239494
    60  C   -0.098553
    61  O    0.000202
    62  H    0.320618
    63  C   -0.381992
    64  H    0.140908
    65  C   -0.466185
    66  H    0.315571
    67  C   -1.140889
    68  C    0.108219
    69  H    0.059381
    70  H    0.321452
    71  C    0.162293
    72  C   -0.251535
    73  H    0.236213
    74  C   -0.660069
    75  H    0.250339
    76  C   -0.560343
    77  H    0.230912
    78  C    0.178988
    79  H    0.323517
    80  C    0.335610
    81  H   -0.080729
    82  C   -0.892641
    83  C   -0.166740
    84  H   -0.182756
    85  H    0.334550
    86  S    0.330839
    87  C   -1.858904
    88  H    0.289570
    89  H    0.307442
    90  C    0.921039
    91  C   -0.596137
    92  C   -0.381365
    93  H    0.342852
    94  C   -0.384987
    95  C   -0.715476
    96  H    0.275462
    97  H    0.217851
    98  H    0.205019
    99  C    0.204430
   100  H    0.386558
   101  C   -0.700205
   102  N    0.608242
   103  C   -0.576149
   104  C    0.160956
   105  O    0.042277
   106  N    0.093356
   107  H    0.537023
   108  C   -0.152727
   109  O   -0.197869
   110  N    0.033388
   111  C    0.022000
   112  N    0.599069
   113  C   -0.392584
   114  C   -1.099449
   115  C   -0.039659
   116  H    0.409457
   117  H   -0.440091
   118  C    0.129112
   119  C    0.481992
   120  H    0.052067
   121  C   -0.366606
   122  H    0.463591
   123  C   -0.717997
   124  O   -0.015198
   125  H    0.293036
   126  C   -0.306000
   127  H    0.246557
   128  C   -0.197391
   129  H    0.239081
   130  C   -0.225800
   131  C   -1.079974
   132  H    0.217311
   133  H    0.243970
   134  C    0.528511
   135  C   -0.569300
   136  H    0.245278
   137  C    0.087184
   138  H    0.308326
   139  C   -0.593633
   140  O    0.065565
   141  H    0.296936
   142  C   -0.028508
   143  H    0.248260
   144  C   -0.343392
   145  H    0.308666
   146  H    0.199165
   147  H    0.179881
   148  H    0.224555
   149  H    0.218252
   150  H    0.318094
   151  H    0.240053
   152  H   -0.073125
   153  H    0.191925
   154  H    0.226913
   155  H    0.189701
   156  H    0.190831
   157  H    0.194019
   158  C   -0.883105
   159  H   -0.773623
   160  H    0.212891
   161  H    0.190817
   162  H    0.173644
   163  H    0.138323
   164  H   -0.013918
   165  H    0.227029
   166  H    0.220597
   167  H    0.183713
   168  H    0.119357
   169  H    0.300072
   170  H    0.226560
   171  H    0.171569
 Sum of Mulliken charges =  -0.00000
 Mulliken charges with hydrogens summed into heavy atoms:
               1
     1  C    0.181972
     2  C    0.304932
     4  C   -0.460801
     7  N    0.888916
     9  C   -0.159229
    10  C   -0.003114
    11  C    0.065165
    12  C   -0.018323
    13  C    0.159291
    16  C   -0.079095
    18  C   -0.087604
    20  C   -0.430988
    23  C    0.302289
    27  C    0.553278
    28  C   -0.298416
    32  C    0.254659
    35  C   -0.200636
    39  C   -0.515141
    40  C    0.442661
    43  C    0.190439
    46  C   -0.714044
    47  O   -0.122091
    48  N    0.068965
    51  C   -0.504182
    52  C    0.306919
    55  C    0.971012
    56  C   -0.501301
    58  C    0.035657
    60  C   -0.098553
    61  O    0.320820
    63  C   -0.241084
    65  C   -0.150614
    67  C   -0.795176
    68  C    0.489052
    71  C    0.162293
    72  C   -0.015322
    74  C   -0.409730
    76  C   -0.329431
    78  C    0.502506
    80  C    0.254881
    82  C   -0.289039
    83  C   -0.014947
    86  S    0.330839
    87  C   -1.261892
    90  C    0.921039
    91  C   -0.253286
    92  C   -0.381365
    94  C   -0.384987
    95  C   -0.017144
    99  C    0.590988
   101  C   -0.700205
   102  N    0.608242
   103  C   -0.576149
   104  C    0.160956
   105  O    0.042277
   106  N    0.630379
   108  C   -0.152727
   109  O   -0.197869
   110  N    0.033388
   111  C    0.022000
   112  N    0.599069
   113  C    0.383815
   114  C   -0.401248
   115  C   -0.070293
   118  C    0.129112
   119  C    0.534058
   121  C    0.096986
   123  C   -0.717997
   124  O    0.277838
   126  C   -0.059444
   128  C    0.041690
   130  C    0.125634
   131  C   -0.618693
   134  C    0.528511
   135  C   -0.324022
   137  C    0.395510
   139  C   -0.593633
   140  O    0.362500
   142  C    0.219752
   144  C   -0.034726
   158  C   -0.305753
 Electronic spatial extent (au):  <R**2>=          68253.6942
 Charge=             -0.0000 electrons
 Dipole moment (field-independent basis, Debye):
    X=             -8.1420    Y=              9.1605    Z=              5.7910  Tot=             13.5551
 Quadrupole moment (field-independent basis, Debye-Ang):
   XX=           -465.3430   YY=           -515.9010   ZZ=           -483.7211
   XY=             26.7824   XZ=             29.4829   YZ=             -3.2967
 Traceless Quadrupole moment (field-independent basis, Debye-Ang):
   XX=             22.9787   YY=            -27.5793   ZZ=              4.6006
   XY=             26.7824   XZ=             29.4829   YZ=             -3.2967
 Octapole moment (field-independent basis, Debye-Ang**2):
  XXX=           -132.7793  YYY=            230.8143  ZZZ=             78.4662  XYY=           -149.5424
  XXY=            118.2811  XXZ=            -98.0899  XZZ=            -12.4973  YZZ=            129.2583
  YYZ=            166.3728  XYZ=             -2.7879
 Hexadecapole moment (field-independent basis, Debye-Ang**3):
 XXXX=         -49813.3423 YYYY=         -31522.4575 ZZZZ=         -13116.9200 XXXY=           -302.6946
 XXXZ=           1318.2232 YYYX=            804.3517 YYYZ=           -128.9865 ZZZX=           -131.7489
 ZZZY=             80.3039 XXYY=         -13328.1262 XXZZ=         -10225.7316 YYZZ=          -7601.2938
 XXYZ=            374.3860 YYXZ=            340.5655 ZZXY=            134.5735
 N-N= 1.632857157652D+04 E-N=-4.156879296078D+04  KE= 3.805088846741D+03
 Leave Link  601 at Fri Mar 25 23:36:34 2022, MaxMem=  4294967296 cpu:             123.9 elap:               2.5
 (Enter /share/apps/g16/l9999.exe)
 1\1\GINC-COMPUTE-0-4\SP\RPBE1PBE\6-311++G(d,p)\C68H90N6O6S1\RVIANELLO\
 25-Mar-2022\0\\#p PBE1PBE/6-311++G(d,p) scrf=(CPCM,solvent=water,Read)
  scf=(XQC,Tight)\\optimisation\\0,1\C,0,-0.35746,-0.95226,0.649048\C,0
 ,-0.133737,-2.141409,0.671164\H,0,0.055687,-3.196275,0.702433\C,0,-0.6
 05892,0.496718,0.5288\H,0,-1.377332,0.794035,1.24607\H,0,-1.012016,0.6
 88388,-0.471936\N,0,0.54976,1.357426,0.724667\H,0,1.318716,1.059347,0.
 12666\C,0,0.992282,1.542338,2.106536\C,0,2.369871,0.992778,2.420207\C,
 0,2.89452,-0.250928,2.082465\C,0,3.124785,1.91681,3.147153\C,0,4.20842
 8,-0.549925,2.447573\H,0,2.288341,-0.979323,1.54422\H,0,4.622215,-1.52
 4317,2.204371\C,0,4.988374,0.392673,3.12407\H,0,6.015075,0.153871,3.38
 6402\C,0,4.446659,1.631093,3.48626\H,0,5.0463,2.353476,4.034572\C,0,2.
 290337,3.13145,3.484894\H,0,1.927988,3.045483,4.517506\H,0,2.846367,4.
 070865,3.41198\C,0,1.129115,3.039863,2.477234\H,0,1.392295,3.578442,1.
 559818\H,0,0.189397,3.455896,2.854253\H,0,0.255728,1.058502,2.764996\C
 ,0,6.947904,-1.644109,0.237982\C,0,6.922224,-2.556097,-0.987438\H,0,7.
 895721,-2.555679,-1.494647\H,0,6.676819,-3.587551,-0.717637\H,0,6.1646
 62,-2.224263,-1.70598\C,0,7.919714,-2.141969,1.313803\H,0,8.940137,-2.
 141371,0.904206\H,0,7.921089,-1.41762,2.13972\C,0,7.581747,-3.527046,1
 .863854\H,0,8.207381,-3.772908,2.726958\H,0,6.533316,-3.572634,2.18209
 1\H,0,7.732831,-4.308709,1.113852\C,0,6.134101,0.23713,-3.781505\C,0,4
 .819637,0.928934,-3.429668\H,0,4.922163,1.470285,-2.479653\H,0,4.59039
 3,1.688656,-4.184208\C,0,3.641045,-0.05001,-3.363632\H,0,2.689553,0.48
 5721,-3.281178\H,0,3.597481,-0.655677,-4.273447\C,0,3.68989,-1.014146,
 -2.197024\O,0,3.53147,-2.243496,-2.353898\N,0,3.894016,-0.492682,-0.98
 452\H,0,4.058812,0.493996,-0.806155\H,0,3.888503,-1.111769,-0.179837\C
 ,0,2.603386,7.957258,-1.276505\C,0,1.720801,6.952701,-0.527763\H,0,1.4
 1955,7.377481,0.43736\H,0,0.800203,6.77743,-1.095666\C,0,2.429801,5.63
 7676,-0.304804\C,0,3.379363,5.500108,0.712812\H,0,3.575743,6.338914,1.
 377184\C,0,4.08607,4.314671,0.890152\H,0,4.827602,4.220966,1.679911\C,
 0,3.832234,3.232388,0.048811\O,0,4.518154,2.051524,0.162102\H,0,4.8254
 69,1.921248,1.078127\C,0,2.884147,3.341616,-0.966175\H,0,2.681152,2.48
 6482,-1.606861\C,0,2.197079,4.539942,-1.138226\H,0,1.452184,4.616202,-
 1.927166\C,0,-1.167166,5.292137,0.889819\C,0,-2.016637,4.068818,0.5332
 64\H,0,-1.559731,3.174686,0.975927\H,0,-3.010667,4.17392,0.979623\C,0,
 -2.139531,3.885602,-0.958944\C,0,-3.2063,4.450511,-1.665613\H,0,-3.969
 059,5.005575,-1.122542\C,0,-3.304972,4.307206,-3.049367\H,0,-4.143394,
 4.74921,-3.580459\C,0,-2.333933,3.590374,-3.747772\H,0,-2.413945,3.468
 34,-4.823623\C,0,-1.263341,3.027749,-3.054202\H,0,-0.509476,2.452732,-
 3.58433\C,0,-1.164315,3.179888,-1.671902\H,0,-0.330068,2.741357,-1.125
 16\C,0,-7.163622,0.256811,3.002505\C,0,-7.3819,0.537671,1.521886\H,0,-
 6.436599,0.830895,1.057053\H,0,-8.106089,1.344439,1.373571\S,0,-7.9860
 81,-0.965193,0.682816\C,0,-7.643365,-0.51857,-1.057967\H,0,-8.159489,0
 .412783,-1.297534\H,0,-8.110306,-1.313947,-1.645377\C,0,-6.168217,-0.4
 41877,-1.371121\C,0,-5.447712,-1.631993,-1.394337\C,0,-4.078928,-1.635
 136,-1.687673\H,0,-5.970423,-2.558578,-1.182598\C,0,-5.528817,0.799304
 ,-1.621937\C,0,-6.288476,2.103072,-1.635923\H,0,-7.02514,2.124507,-2.4
 46287\H,0,-6.828648,2.276669,-0.699679\H,0,-5.597101,2.935058,-1.78722
 6\C,0,-4.168372,0.793178,-1.884012\H,0,-3.625429,1.717579,-2.069694\C,
 0,-3.433996,-0.401941,-1.927927\N,0,-2.087852,-0.337814,-2.188324\C,0,
 -1.426466,-1.441513,-2.239366\C,0,0.05776,-1.372967,-2.411751\O,0,0.68
 59,-0.330801,-2.353232\N,0,0.630574,-2.591159,-2.642332\H,0,1.647567,-
 2.610389,-2.770218\C,0,-0.033794,-3.831055,-2.675564\O,0,0.587894,-4.8
 1729,-3.025527\N,0,-1.358032,-3.889655,-2.293639\C,0,-2.011055,-2.7757
 31,-2.102812\N,0,-3.336677,-2.805031,-1.77202\C,0,-3.99688,-4.089042,-
 1.533528\C,0,-4.654081,-2.970415,2.189489\C,0,-3.271502,-2.35073,1.970
 398\H,0,-2.517846,-2.899144,2.546899\H,0,-2.98013,-2.454334,0.915896\C
 ,0,-3.216403,-0.892559,2.355809\C,0,-3.910989,0.065997,1.609988\H,0,-4
 .483278,-0.254869,0.741815\C,0,-3.883733,1.415237,1.945055\H,0,-4.4162
 64,2.154101,1.351193\C,0,-3.14996,1.834325,3.058478\O,0,-3.159508,3.16
 2788,3.362984\H,0,-2.604614,3.318816,4.141953\C,0,-2.443388,0.896348,3
 .812093\H,0,-1.865447,1.219299,4.675112\C,0,-2.482331,-0.451506,3.4569
 92\H,0,-1.920615,-1.170547,4.048037\C,0,-1.834386,-5.797743,1.014976\C
 ,0,-0.570046,-6.331481,1.699033\H,0,-0.699919,-6.315673,2.786547\H,0,-
 0.42532,-7.380943,1.414616\C,0,0.654507,-5.527022,1.326258\C,0,1.39046
 1,-4.811089,2.274742\H,0,1.099705,-4.858208,3.321456\C,0,2.477836,-4.0
 19243,1.908359\H,0,3.033647,-3.453836,2.650811\C,0,2.848524,-3.935148,
 0.56621\O,0,3.908059,-3.150357,0.21918\H,0,3.904407,-3.043009,-0.76392
 8\C,0,2.139479,-4.658632,-0.395207\H,0,2.428798,-4.605303,-1.440861\C,
 0,1.055691,-5.43966,-0.012131\H,0,0.508684,-5.97606,-0.78368\H,0,-6.82
 2603,1.166596,3.504927\H,0,-6.399121,-0.514045,3.138573\H,0,-8.08735,-
 0.075947,3.485294\H,0,-4.380558,-4.112227,-0.509482\H,0,-3.263605,-4.8
 76655,-1.676495\H,0,-4.820322,-4.214062,-2.239992\H,0,-0.142799,5.1642
 93,0.524197\H,0,-1.127126,5.435703,1.974594\H,0,-1.580317,6.200319,0.4
 37229\H,0,2.891196,7.560734,-2.255034\H,0,3.52048,8.161034,-0.714657\H
 ,0,2.078862,8.9048,-1.429951\C,0,7.269157,-0.201412,-0.149311\H,0,5.94
 2191,-1.66171,0.673537\H,0,8.262038,-0.135228,-0.612049\H,0,7.263869,0
 .452274,0.731368\H,0,6.536227,0.192256,-0.861277\H,0,-1.724675,-5.8229
 18,-0.074063\H,0,-2.017626,-4.755954,1.300946\H,0,-2.714297,-6.389536,
 1.286216\H,0,6.963495,0.949728,-3.804424\H,0,6.066605,-0.240363,-4.764
 397\H,0,6.383438,-0.539411,-3.051098\H,0,-5.411797,-2.467503,1.576271\
 H,0,-4.958889,-2.879459,3.237394\H,0,-4.653004,-4.034943,1.929628\\Ver
 sion=ES64L-G16RevB.01\State=1-A\HF=-3820.2712344\RMSD=4.356e-09\Dipole
 =-3.2032945,3.6040181,2.2783424\Quadrupole=17.0840863,-20.504525,3.420
 4387,19.9120283,21.919836,-2.4510307\PG=C01 [X(C68H90N6O6S1)]\\@


 THE WHOLE OF SCIENCE IS NOTHING MORE THAN A REFINEMENT OF EVERYDAY THINKING.
                                                              -- A. EINSTEIN
 Job cpu time:       4 days 23 hours 42 minutes 15.6 seconds.
 Elapsed time:       0 days  1 hours 53 minutes 13.0 seconds.
 File lengths (MBytes):  RWF=   3669 Int=      0 D2E=      0 Chk=    337 Scr=      1
 Normal termination of Gaussian 16 at Fri Mar 25 23:36:35 2022.
