 Entering Gaussian System, Link 0=g16
 Input=ras-n-k1-scan1-ts1-irc-f-opt-scan1-ts1.com
 Output=ras-n-k1-scan1-ts1-irc-f-opt-scan1-ts1.log
 Initial command:
 /share/apps/g16/l1.exe "/state/partition1/Gau-125652.inp" -scrdir="/state/partition1/"
 Entering Link 1 = /share/apps/g16/l1.exe PID=    125655.
  
 Copyright (c) 1988-2017, Gaussian, Inc.  All Rights Reserved.
  
 This is part of the Gaussian(R) 16 program.  It is based on
 the Gaussian(R) 09 system (copyright 2009, Gaussian, Inc.),
 the Gaussian(R) 03 system (copyright 2003, Gaussian, Inc.),
 the Gaussian(R) 98 system (copyright 1998, Gaussian, Inc.),
 the Gaussian(R) 94 system (copyright 1995, Gaussian, Inc.),
 the Gaussian 92(TM) system (copyright 1992, Gaussian, Inc.),
 the Gaussian 90(TM) system (copyright 1990, Gaussian, Inc.),
 the Gaussian 88(TM) system (copyright 1988, Gaussian, Inc.),
 the Gaussian 86(TM) system (copyright 1986, Carnegie Mellon
 University), and the Gaussian 82(TM) system (copyright 1983,
 Carnegie Mellon University). Gaussian is a federally registered
 trademark of Gaussian, Inc.
  
 This software contains proprietary and confidential information,
 including trade secrets, belonging to Gaussian, Inc.
  
 This software is provided under written license and may be
 used, copied, transmitted, or stored only in accord with that
 written license.
  
 The following legend is applicable only to US Government
 contracts under FAR:
  
                    RESTRICTED RIGHTS LEGEND
  
 Use, reproduction and disclosure by the US Government is
 subject to restrictions as set forth in subparagraphs (a)
 and (c) of the Commercial Computer Software - Restricted
 Rights clause in FAR 52.227-19.
  
 Gaussian, Inc.
 340 Quinnipiac St., Bldg. 40, Wallingford CT 06492
  
  
 ---------------------------------------------------------------
 Warning -- This program may not be used in any manner that
 competes with the business of Gaussian, Inc. or will provide
 assistance to any competitor of Gaussian, Inc.  The licensee
 of this program is prohibited from giving any competitor of
 Gaussian, Inc. access to this program.  By using this program,
 the user acknowledges that Gaussian, Inc. is engaged in the
 business of creating and licensing software in the field of
 computational chemistry and represents and warrants to the
 licensee that it is not a competitor of Gaussian, Inc. and that
 it will not use this program in any manner prohibited above.
 ---------------------------------------------------------------
  

 Cite this work as:
 Gaussian 16, Revision B.01,
 M. J. Frisch, G. W. Trucks, H. B. Schlegel, G. E. Scuseria, 
 M. A. Robb, J. R. Cheeseman, G. Scalmani, V. Barone, 
 G. A. Petersson, H. Nakatsuji, X. Li, M. Caricato, A. V. Marenich, 
 J. Bloino, B. G. Janesko, R. Gomperts, B. Mennucci, H. P. Hratchian, 
 J. V. Ortiz, A. F. Izmaylov, J. L. Sonnenberg, D. Williams-Young, 
 F. Ding, F. Lipparini, F. Egidi, J. Goings, B. Peng, A. Petrone, 
 T. Henderson, D. Ranasinghe, V. G. Zakrzewski, J. Gao, N. Rega, 
 G. Zheng, W. Liang, M. Hada, M. Ehara, K. Toyota, R. Fukuda, 
 J. Hasegawa, M. Ishida, T. Nakajima, Y. Honda, O. Kitao, H. Nakai, 
 T. Vreven, K. Throssell, J. A. Montgomery, Jr., J. E. Peralta, 
 F. Ogliaro, M. J. Bearpark, J. J. Heyd, E. N. Brothers, K. N. Kudin, 
 V. N. Staroverov, T. A. Keith, R. Kobayashi, J. Normand, 
 K. Raghavachari, A. P. Rendell, J. C. Burant, S. S. Iyengar, 
 J. Tomasi, M. Cossi, J. M. Millam, M. Klene, C. Adamo, R. Cammi, 
 J. W. Ochterski, R. L. Martin, K. Morokuma, O. Farkas, 
 J. B. Foresman, and D. J. Fox, Gaussian, Inc., Wallingford CT, 2016.
 
 ******************************************
 Gaussian 16:  ES64L-G16RevB.01 20-Dec-2017
                 4-Apr-2022 
 ******************************************
 %mem=32GB
 %nproc=64
 Will use up to   64 processors via shared memory.
 ----------------------------------------------------------------------
 #p PBE1PBE/6-311++G(d,p) scrf=(CPCM,solvent=water,Read) scf=(XQC,Tight
 )
 ----------------------------------------------------------------------
 1/38=1,40=2,172=1/1;
 2/12=2,17=6,18=5,40=1/2;
 3/5=4,6=6,7=1111,11=2,25=1,30=1,70=2103,72=1,74=-13/1,2,3;
 4//1;
 5/5=2,8=3,13=1,32=2,38=5,53=1/2,8;
 6/7=2,8=2,9=2,10=2,28=1/1;
 99/5=1,9=1/99;
 Leave Link    1 at Mon Apr  4 10:44:27 2022, MaxMem=  4294967296 cpu:               5.2 elap:               0.1
 (Enter /share/apps/g16/l101.exe)
 ------------
 optimisation
 ------------
 Symbolic Z-matrix:
 Charge =  0 Multiplicity = 1
 6                    0    -0.86118  -0.49629  -0.08383 
 6                    0    -1.2287   -1.67085  -0.5711 
 1                    0    -1.09559  -2.66043  -0.14505 
 6                    0    -0.23952  -0.08529   1.10841 
 1                    0    -0.81174   0.01781   2.03183 
 1                    0    -1.25211   0.24108  -1.05638 
 7                    0     1.00101   0.32427   1.1669 
 1                    0     1.58031   0.21991   0.32852 
 6                    0     1.58362   1.01018   2.315 
 6                    0     2.98121   0.53771   2.64437 
 6                    0     3.48121  -0.75997   2.64948 
 6                    0     3.77714   1.62908   2.99684 
 6                    0     4.81592  -0.95602   3.00628 
 1                    0     2.8522   -1.60856   2.3846 
 1                    0     5.22818  -1.95982   3.02319 
 6                    0     5.62472   0.13141   3.35064 
 1                    0     6.6618   -0.03766   3.62395 
 6                    0     5.10843   1.43042   3.35347 
 1                    0     5.73906   2.27194   3.62698 
 6                    0     2.98554   2.91518   2.92948 
 1                    0     2.67501   3.21705   3.93727 
 1                    0     3.55558   3.74086   2.49445 
 6                    0     1.76763   2.52452   2.06842 
 1                    0     2.00974   2.67689   1.00886 
 1                    0     0.85747   3.08762   2.29582 
 1                    0     0.90285   0.83001   3.15672 
 6                    0     5.50558  -3.51791   0.68375 
 6                    0     5.03711  -4.48158  -0.40642 
 1                    0     5.89897  -4.93518  -0.91206 
 1                    0     4.41594  -5.28426   0.00111 
 1                    0     4.43919  -3.96249  -1.1632 
 6                    0     6.28603  -4.24718   1.78436 
 1                    0     7.12831  -4.78294   1.32435 
 1                    0     6.73547  -3.50339   2.45694 
 6                    0     5.43517  -5.21515   2.60458 
 1                    0     6.00791  -5.64173   3.43311 
 1                    0     4.56308  -4.70081   3.02599 
 1                    0     5.06596  -6.04537   1.99572 
 6                    0     5.43621  -1.96038  -3.53117 
 6                    0     4.61189  -0.71073  -3.22982 
 1                    0     4.97338  -0.2313   -2.31031 
 1                    0     4.75449   0.02472  -4.02839 
 6                    0     3.11064  -1.01393  -3.12513 
 1                    0     2.52777  -0.08729  -3.07513 
 1                    0     2.7633   -1.56145  -4.00337 
 6                    0     2.75303  -1.85086  -1.91532 
 8                    0     2.26304  -2.98114  -2.00834 
 7                    0     2.9908   -1.27942  -0.69907 
 1                    0     3.69767  -0.55209  -0.5954 
 1                    0     2.86831  -1.88988   0.10629 
 6                    0     4.81752   6.69175  -2.26169 
 6                    0     3.77745   6.13854  -1.28154 
 1                    0     3.7394    6.77498  -0.38907 
 1                    0     2.78274   6.17514  -1.74043 
 6                    0     4.08011   4.71445  -0.88182 
 6                    0     5.08221   4.42398   0.04933 
 1                    0     5.62532   5.23908   0.52289 
 6                    0     5.40683   3.11157   0.38109 
 1                    0     6.19383   2.89963   1.09969 
 6                    0     4.70975   2.0615   -0.21621 
 8                    0     4.98616   0.74675   0.05858 
 1                    0     5.44232   0.66403   0.91508 
 6                    0     3.70891   2.32795  -1.14714 
 1                    0     3.15897   1.50778  -1.60219 
 6                    0     3.40319   3.64559  -1.47347 
 1                    0     2.61551   3.8415   -2.19625 
 6                    0     0.77038   5.75608   0.59774 
 6                    0    -0.42529   4.95176   0.07592 
 1                    0    -0.73744   4.2327    0.84018 
 1                    0    -1.27319   5.62968  -0.08369 
 6                    0    -0.11012   4.21614  -1.20403 
 6                    0     0.07684   4.90885  -2.40639 
 1                    0    -0.03644   5.99118  -2.42226 
 6                    0     0.39551   4.22759  -3.57908 
 1                    0     0.52976   4.77965  -4.5048 
 6                    0     0.53506   2.83823  -3.56749 
 1                    0     0.77475   2.3045   -4.48235 
 6                    0     0.34345   2.13315  -2.38067 
 1                    0     0.39664   1.04647  -2.38096 
 6                    0     0.023     2.82589  -1.21208 
 1                    0    -0.15568   2.27999  -0.28701 
 6                    0    -6.10953   2.32078   3.20176 
 6                    0    -6.30073   2.67275   1.73289 
 1                    0    -5.36972   2.49864   1.1862 
 1                    0    -6.58224   3.72423   1.61566 
 16                   0    -7.58523   1.62404   0.97675 
 6                    0    -7.19776   1.88887  -0.80206 
 1                    0    -7.32924   2.94944  -1.02937 
 1                    0    -7.98729   1.34328  -1.32722 
 6                    0    -5.83758   1.39351  -1.21627 
 6                    0    -5.63511   0.01662  -1.3533 
 6                    0    -4.39595  -0.51374  -1.70322 
 1                    0    -6.47787  -0.64271  -1.16656 
 6                    0    -4.76302   2.26759  -1.46884 
 6                    0    -4.91416   3.77011  -1.40455 
 1                    0    -5.59944   4.13602  -2.17749 
 1                    0    -5.30632   4.10835  -0.44018 
 1                    0    -3.9464    4.25459  -1.56099 
 6                    0    -3.52879   1.72904  -1.81755 
 1                    0    -2.68198   2.38418  -2.01262 
 6                    0    -3.29607   0.34661  -1.92744 
 7                    0    -2.03555  -0.0947   -2.23072 
 6                    0    -1.81596  -1.4932   -2.01673 
 6                    0    -0.64997  -1.96405  -2.88881 
 8                    0     0.20674  -1.21347  -3.30799 
 7                    0    -0.5832   -3.3225   -3.03078 
 1                    0     0.29361  -3.71568  -3.35999 
 6                    0    -1.63126  -4.21673  -2.75232 
 8                    0    -1.41902  -5.41254  -2.85845 
 7                    0    -2.8639   -3.70143  -2.42481 
 6                    0    -2.99502  -2.42676  -2.15847 
 7                    0    -4.21431  -1.90801  -1.90897 
 6                    0    -5.39995  -2.7585   -1.96576 
 6                    0    -5.29949  -1.52481   2.12041 
 6                    0    -3.80125  -1.51491   2.42751 
 1                    0    -3.60374  -2.12267   3.31828 
 1                    0    -3.25468  -1.99056   1.59973 
 6                    0    -3.23293  -0.13178   2.64037 
 6                    0    -3.30129   0.83203   1.62537 
 1                    0    -3.80177   0.59448   0.68841 
 6                    0    -2.71772   2.08571   1.77187 
 1                    0    -2.76956   2.81815   0.96929 
 6                    0    -2.06225   2.40919   2.96357 
 8                    0    -1.51145   3.65378   3.06863 
 1                    0    -1.12914   3.76468   3.95253 
 6                    0    -1.99006   1.46945   3.99233 
 1                    0    -1.48477   1.71962   4.9224 
 6                    0    -2.57536   0.21355   3.82319 
 1                    0    -2.50523  -0.51364   4.62839 
 6                    0    -4.21235  -4.64314   0.59107 
 6                    0    -3.28638  -5.01495   1.75173 
 1                    0    -3.5962   -4.48171   2.65826 
 1                    0    -3.39431  -6.08487   1.97063 
 6                    0    -1.83631  -4.69795   1.46181 
 6                    0    -1.07407  -3.9015    2.32093 
 1                    0    -1.52847  -3.50775   3.22742 
 6                    0     0.25501  -3.59033   2.03925 
 1                    0     0.83601  -2.96414   2.71036 
 6                    0     0.84494  -4.07396   0.87279 
 8                    0     2.14533  -3.75035   0.60806 
 1                    0     2.26656  -3.76642  -0.37185 
 6                    0     0.10492  -4.88051   0.00413 
 1                    0     0.55467  -5.24863  -0.91464 
 6                    0    -1.2191   -5.18434   0.30357 
 1                    0    -1.77865  -5.79481  -0.39991 
 1                    0    -5.34828   2.97243   3.6421 
 1                    0    -5.77038   1.28623   3.30757 
 1                    0    -7.03692   2.44504   3.76919 
 1                    0    -5.90347  -2.76029  -0.99477 
 1                    0    -5.08611  -3.76812  -2.21449 
 1                    0    -6.08504  -2.37542  -2.72681 
 1                    0     1.65467   5.11598   0.69989 
 1                    0     0.54586   6.19873   1.57337 
 1                    0     1.029     6.56635  -0.09156 
 1                    0     4.8476    6.08486  -3.17185 
 1                    0     5.81738   6.67698  -1.81612 
 1                    0     4.58461   7.72278  -2.54331 
 6                    0     6.34325  -2.3874    0.08768 
 1                    0     4.60763  -3.07882   1.14409 
 1                    0     7.23236  -2.78951  -0.41399 
 1                    0     6.68278  -1.69201   0.86504 
 1                    0     5.77269  -1.81244  -0.64971 
 1                    0    -3.9695   -5.20652  -0.31441 
 1                    0    -4.10621  -3.58099   0.34233 
 1                    0    -5.25979  -4.83682   0.84472 
 1                    0     6.50359  -1.72717  -3.58192 
 1                    0     5.13542  -2.39702  -4.4889 
 1                    0     5.30056  -2.72754  -2.76152 
 1                    0    -5.52469  -0.92701   1.23044 
 1                    0    -5.87255  -1.10682   2.95437 
 1                    0    -5.65182  -2.5465    1.94445 
 
 ITRead=  0  0  0  0  0  0  0  0  0  0  0  0  0  0  0  0  0  0  0  0
 ITRead=  0  0  0  0  0  0  0  0  0  0  0  0  0  0  0  0  0  0  0  0
 ITRead=  0  0  0  0  0  0  0  0  0  0  0  0  0  0  0  0  0  0  0  0
 ITRead=  0  0  0  0  0  0  0  0  0  0  0  0  0  0  0  0  0  0  0  0
 ITRead=  0  0  0  0  0  0  0  0  0  0  0  0  0  0  0  0  0  0  0  0
 ITRead=  0  0  0  0  0  0  0  0  0  0  0  0  0  0  0  0  0  0  0  0
 ITRead=  0  0  0  0  0  0  0  0  0  0  0  0  0  0  0  0  0  0  0  0
 ITRead=  0  0  0  0  0  0  0  0  0  0  0  0  0  0  0  0  0  0  0  0
 ITRead=  0  0  0  0  0  0  0  0  0  0  0
 MicOpt= -1 -1 -1 -1 -1 -1 -1 -1 -1 -1 -1 -1 -1 -1 -1 -1 -1 -1 -1 -1
 MicOpt= -1 -1 -1 -1 -1 -1 -1 -1 -1 -1 -1 -1 -1 -1 -1 -1 -1 -1 -1 -1
 MicOpt= -1 -1 -1 -1 -1 -1 -1 -1 -1 -1 -1 -1 -1 -1 -1 -1 -1 -1 -1 -1
 MicOpt= -1 -1 -1 -1 -1 -1 -1 -1 -1 -1 -1 -1 -1 -1 -1 -1 -1 -1 -1 -1
 MicOpt= -1 -1 -1 -1 -1 -1 -1 -1 -1 -1 -1 -1 -1 -1 -1 -1 -1 -1 -1 -1
 MicOpt= -1 -1 -1 -1 -1 -1 -1 -1 -1 -1 -1 -1 -1 -1 -1 -1 -1 -1 -1 -1
 MicOpt= -1 -1 -1 -1 -1 -1 -1 -1 -1 -1 -1 -1 -1 -1 -1 -1 -1 -1 -1 -1
 MicOpt= -1 -1 -1 -1 -1 -1 -1 -1 -1 -1 -1 -1 -1 -1 -1 -1 -1 -1 -1 -1
 MicOpt= -1 -1 -1 -1 -1 -1 -1 -1 -1 -1 -1
 NAtoms=    171 NQM=      171 NQMF=       0 NMMI=      0 NMMIF=      0
                NMic=       0 NMicF=      0.
                    Isotopes and Nuclear Properties:
 (Nuclear quadrupole moments (NQMom) in fm**2, nuclear magnetic moments (NMagM)
  in nuclear magnetons)

  Atom         1           2           3           4           5           6           7           8           9          10
 IAtWgt=          12          12           1          12           1           1          14           1          12          12
 AtmWgt=  12.0000000  12.0000000   1.0078250  12.0000000   1.0078250   1.0078250  14.0030740   1.0078250  12.0000000  12.0000000
 NucSpn=           0           0           1           0           1           1           2           1           0           0
 AtZEff=  -0.0000000  -0.0000000  -0.0000000  -0.0000000  -0.0000000  -0.0000000  -0.0000000  -0.0000000  -0.0000000  -0.0000000
 NQMom=    0.0000000   0.0000000   0.0000000   0.0000000   0.0000000   0.0000000   2.0440000   0.0000000   0.0000000   0.0000000
 NMagM=    0.0000000   0.0000000   2.7928460   0.0000000   2.7928460   2.7928460   0.4037610   2.7928460   0.0000000   0.0000000
 AtZNuc=   6.0000000   6.0000000   1.0000000   6.0000000   1.0000000   1.0000000   7.0000000   1.0000000   6.0000000   6.0000000

  Atom        11          12          13          14          15          16          17          18          19          20
 IAtWgt=          12          12          12           1           1          12           1          12           1          12
 AtmWgt=  12.0000000  12.0000000  12.0000000   1.0078250   1.0078250  12.0000000   1.0078250  12.0000000   1.0078250  12.0000000
 NucSpn=           0           0           0           1           1           0           1           0           1           0
 AtZEff=  -0.0000000  -0.0000000  -0.0000000  -0.0000000  -0.0000000  -0.0000000  -0.0000000  -0.0000000  -0.0000000  -0.0000000
 NQMom=    0.0000000   0.0000000   0.0000000   0.0000000   0.0000000   0.0000000   0.0000000   0.0000000   0.0000000   0.0000000
 NMagM=    0.0000000   0.0000000   0.0000000   2.7928460   2.7928460   0.0000000   2.7928460   0.0000000   2.7928460   0.0000000
 AtZNuc=   6.0000000   6.0000000   6.0000000   1.0000000   1.0000000   6.0000000   1.0000000   6.0000000   1.0000000   6.0000000

  Atom        21          22          23          24          25          26          27          28          29          30
 IAtWgt=           1           1          12           1           1           1          12          12           1           1
 AtmWgt=   1.0078250   1.0078250  12.0000000   1.0078250   1.0078250   1.0078250  12.0000000  12.0000000   1.0078250   1.0078250
 NucSpn=           1           1           0           1           1           1           0           0           1           1
 AtZEff=  -0.0000000  -0.0000000  -0.0000000  -0.0000000  -0.0000000  -0.0000000  -0.0000000  -0.0000000  -0.0000000  -0.0000000
 NQMom=    0.0000000   0.0000000   0.0000000   0.0000000   0.0000000   0.0000000   0.0000000   0.0000000   0.0000000   0.0000000
 NMagM=    2.7928460   2.7928460   0.0000000   2.7928460   2.7928460   2.7928460   0.0000000   0.0000000   2.7928460   2.7928460
 AtZNuc=   1.0000000   1.0000000   6.0000000   1.0000000   1.0000000   1.0000000   6.0000000   6.0000000   1.0000000   1.0000000

  Atom        31          32          33          34          35          36          37          38          39          40
 IAtWgt=           1          12           1           1          12           1           1           1          12          12
 AtmWgt=   1.0078250  12.0000000   1.0078250   1.0078250  12.0000000   1.0078250   1.0078250   1.0078250  12.0000000  12.0000000
 NucSpn=           1           0           1           1           0           1           1           1           0           0
 AtZEff=  -0.0000000  -0.0000000  -0.0000000  -0.0000000  -0.0000000  -0.0000000  -0.0000000  -0.0000000  -0.0000000  -0.0000000
 NQMom=    0.0000000   0.0000000   0.0000000   0.0000000   0.0000000   0.0000000   0.0000000   0.0000000   0.0000000   0.0000000
 NMagM=    2.7928460   0.0000000   2.7928460   2.7928460   0.0000000   2.7928460   2.7928460   2.7928460   0.0000000   0.0000000
 AtZNuc=   1.0000000   6.0000000   1.0000000   1.0000000   6.0000000   1.0000000   1.0000000   1.0000000   6.0000000   6.0000000

  Atom        41          42          43          44          45          46          47          48          49          50
 IAtWgt=           1           1          12           1           1          12          16          14           1           1
 AtmWgt=   1.0078250   1.0078250  12.0000000   1.0078250   1.0078250  12.0000000  15.9949146  14.0030740   1.0078250   1.0078250
 NucSpn=           1           1           0           1           1           0           0           2           1           1
 AtZEff=  -0.0000000  -0.0000000  -0.0000000  -0.0000000  -0.0000000  -0.0000000  -0.0000000  -0.0000000  -0.0000000  -0.0000000
 NQMom=    0.0000000   0.0000000   0.0000000   0.0000000   0.0000000   0.0000000   0.0000000   2.0440000   0.0000000   0.0000000
 NMagM=    2.7928460   2.7928460   0.0000000   2.7928460   2.7928460   0.0000000   0.0000000   0.4037610   2.7928460   2.7928460
 AtZNuc=   1.0000000   1.0000000   6.0000000   1.0000000   1.0000000   6.0000000   8.0000000   7.0000000   1.0000000   1.0000000

  Atom        51          52          53          54          55          56          57          58          59          60
 IAtWgt=          12          12           1           1          12          12           1          12           1          12
 AtmWgt=  12.0000000  12.0000000   1.0078250   1.0078250  12.0000000  12.0000000   1.0078250  12.0000000   1.0078250  12.0000000
 NucSpn=           0           0           1           1           0           0           1           0           1           0
 AtZEff=  -0.0000000  -0.0000000  -0.0000000  -0.0000000  -0.0000000  -0.0000000  -0.0000000  -0.0000000  -0.0000000  -0.0000000
 NQMom=    0.0000000   0.0000000   0.0000000   0.0000000   0.0000000   0.0000000   0.0000000   0.0000000   0.0000000   0.0000000
 NMagM=    0.0000000   0.0000000   2.7928460   2.7928460   0.0000000   0.0000000   2.7928460   0.0000000   2.7928460   0.0000000
 AtZNuc=   6.0000000   6.0000000   1.0000000   1.0000000   6.0000000   6.0000000   1.0000000   6.0000000   1.0000000   6.0000000

  Atom        61          62          63          64          65          66          67          68          69          70
 IAtWgt=          16           1          12           1          12           1          12          12           1           1
 AtmWgt=  15.9949146   1.0078250  12.0000000   1.0078250  12.0000000   1.0078250  12.0000000  12.0000000   1.0078250   1.0078250
 NucSpn=           0           1           0           1           0           1           0           0           1           1
 AtZEff=  -0.0000000  -0.0000000  -0.0000000  -0.0000000  -0.0000000  -0.0000000  -0.0000000  -0.0000000  -0.0000000  -0.0000000
 NQMom=    0.0000000   0.0000000   0.0000000   0.0000000   0.0000000   0.0000000   0.0000000   0.0000000   0.0000000   0.0000000
 NMagM=    0.0000000   2.7928460   0.0000000   2.7928460   0.0000000   2.7928460   0.0000000   0.0000000   2.7928460   2.7928460
 AtZNuc=   8.0000000   1.0000000   6.0000000   1.0000000   6.0000000   1.0000000   6.0000000   6.0000000   1.0000000   1.0000000

  Atom        71          72          73          74          75          76          77          78          79          80
 IAtWgt=          12          12           1          12           1          12           1          12           1          12
 AtmWgt=  12.0000000  12.0000000   1.0078250  12.0000000   1.0078250  12.0000000   1.0078250  12.0000000   1.0078250  12.0000000
 NucSpn=           0           0           1           0           1           0           1           0           1           0
 AtZEff=  -0.0000000  -0.0000000  -0.0000000  -0.0000000  -0.0000000  -0.0000000  -0.0000000  -0.0000000  -0.0000000  -0.0000000
 NQMom=    0.0000000   0.0000000   0.0000000   0.0000000   0.0000000   0.0000000   0.0000000   0.0000000   0.0000000   0.0000000
 NMagM=    0.0000000   0.0000000   2.7928460   0.0000000   2.7928460   0.0000000   2.7928460   0.0000000   2.7928460   0.0000000
 AtZNuc=   6.0000000   6.0000000   1.0000000   6.0000000   1.0000000   6.0000000   1.0000000   6.0000000   1.0000000   6.0000000

  Atom        81          82          83          84          85          86          87          88          89          90
 IAtWgt=           1          12          12           1           1          32          12           1           1          12
 AtmWgt=   1.0078250  12.0000000  12.0000000   1.0078250   1.0078250  31.9720718  12.0000000   1.0078250   1.0078250  12.0000000
 NucSpn=           1           0           0           1           1           0           0           1           1           0
 AtZEff=  -0.0000000  -0.0000000  -0.0000000  -0.0000000  -0.0000000  -0.0000000  -0.0000000  -0.0000000  -0.0000000  -0.0000000
 NQMom=    0.0000000   0.0000000   0.0000000   0.0000000   0.0000000   0.0000000   0.0000000   0.0000000   0.0000000   0.0000000
 NMagM=    2.7928460   0.0000000   0.0000000   2.7928460   2.7928460   0.0000000   0.0000000   2.7928460   2.7928460   0.0000000
 AtZNuc=   1.0000000   6.0000000   6.0000000   1.0000000   1.0000000  16.0000000   6.0000000   1.0000000   1.0000000   6.0000000

  Atom        91          92          93          94          95          96          97          98          99         100
 IAtWgt=          12          12           1          12          12           1           1           1          12           1
 AtmWgt=  12.0000000  12.0000000   1.0078250  12.0000000  12.0000000   1.0078250   1.0078250   1.0078250  12.0000000   1.0078250
 NucSpn=           0           0           1           0           0           1           1           1           0           1
 AtZEff=  -0.0000000  -0.0000000  -0.0000000  -0.0000000  -0.0000000  -0.0000000  -0.0000000  -0.0000000  -0.0000000  -0.0000000
 NQMom=    0.0000000   0.0000000   0.0000000   0.0000000   0.0000000   0.0000000   0.0000000   0.0000000   0.0000000   0.0000000
 NMagM=    0.0000000   0.0000000   2.7928460   0.0000000   0.0000000   2.7928460   2.7928460   2.7928460   0.0000000   2.7928460
 AtZNuc=   6.0000000   6.0000000   1.0000000   6.0000000   6.0000000   1.0000000   1.0000000   1.0000000   6.0000000   1.0000000

  Atom       101         102         103         104         105         106         107         108         109         110
 IAtWgt=          12          14          12          12          16          14           1          12          16          14
 AtmWgt=  12.0000000  14.0030740  12.0000000  12.0000000  15.9949146  14.0030740   1.0078250  12.0000000  15.9949146  14.0030740
 NucSpn=           0           2           0           0           0           2           1           0           0           2
 AtZEff=  -0.0000000  -0.0000000  -0.0000000  -0.0000000  -0.0000000  -0.0000000  -0.0000000  -0.0000000  -0.0000000  -0.0000000
 NQMom=    0.0000000   2.0440000   0.0000000   0.0000000   0.0000000   2.0440000   0.0000000   0.0000000   0.0000000   2.0440000
 NMagM=    0.0000000   0.4037610   0.0000000   0.0000000   0.0000000   0.4037610   2.7928460   0.0000000   0.0000000   0.4037610
 AtZNuc=   6.0000000   7.0000000   6.0000000   6.0000000   8.0000000   7.0000000   1.0000000   6.0000000   8.0000000   7.0000000

  Atom       111         112         113         114         115         116         117         118         119         120
 IAtWgt=          12          14          12          12          12           1           1          12          12           1
 AtmWgt=  12.0000000  14.0030740  12.0000000  12.0000000  12.0000000   1.0078250   1.0078250  12.0000000  12.0000000   1.0078250
 NucSpn=           0           2           0           0           0           1           1           0           0           1
 AtZEff=  -0.0000000  -0.0000000  -0.0000000  -0.0000000  -0.0000000  -0.0000000  -0.0000000  -0.0000000  -0.0000000  -0.0000000
 NQMom=    0.0000000   2.0440000   0.0000000   0.0000000   0.0000000   0.0000000   0.0000000   0.0000000   0.0000000   0.0000000
 NMagM=    0.0000000   0.4037610   0.0000000   0.0000000   0.0000000   2.7928460   2.7928460   0.0000000   0.0000000   2.7928460
 AtZNuc=   6.0000000   7.0000000   6.0000000   6.0000000   6.0000000   1.0000000   1.0000000   6.0000000   6.0000000   1.0000000

  Atom       121         122         123         124         125         126         127         128         129         130
 IAtWgt=          12           1          12          16           1          12           1          12           1          12
 AtmWgt=  12.0000000   1.0078250  12.0000000  15.9949146   1.0078250  12.0000000   1.0078250  12.0000000   1.0078250  12.0000000
 NucSpn=           0           1           0           0           1           0           1           0           1           0
 AtZEff=  -0.0000000  -0.0000000  -0.0000000  -0.0000000  -0.0000000  -0.0000000  -0.0000000  -0.0000000  -0.0000000  -0.0000000
 NQMom=    0.0000000   0.0000000   0.0000000   0.0000000   0.0000000   0.0000000   0.0000000   0.0000000   0.0000000   0.0000000
 NMagM=    0.0000000   2.7928460   0.0000000   0.0000000   2.7928460   0.0000000   2.7928460   0.0000000   2.7928460   0.0000000
 AtZNuc=   6.0000000   1.0000000   6.0000000   8.0000000   1.0000000   6.0000000   1.0000000   6.0000000   1.0000000   6.0000000

  Atom       131         132         133         134         135         136         137         138         139         140
 IAtWgt=          12           1           1          12          12           1          12           1          12          16
 AtmWgt=  12.0000000   1.0078250   1.0078250  12.0000000  12.0000000   1.0078250  12.0000000   1.0078250  12.0000000  15.9949146
 NucSpn=           0           1           1           0           0           1           0           1           0           0
 AtZEff=  -0.0000000  -0.0000000  -0.0000000  -0.0000000  -0.0000000  -0.0000000  -0.0000000  -0.0000000  -0.0000000  -0.0000000
 NQMom=    0.0000000   0.0000000   0.0000000   0.0000000   0.0000000   0.0000000   0.0000000   0.0000000   0.0000000   0.0000000
 NMagM=    0.0000000   2.7928460   2.7928460   0.0000000   0.0000000   2.7928460   0.0000000   2.7928460   0.0000000   0.0000000
 AtZNuc=   6.0000000   1.0000000   1.0000000   6.0000000   6.0000000   1.0000000   6.0000000   1.0000000   6.0000000   8.0000000

  Atom       141         142         143         144         145         146         147         148         149         150
 IAtWgt=           1          12           1          12           1           1           1           1           1           1
 AtmWgt=   1.0078250  12.0000000   1.0078250  12.0000000   1.0078250   1.0078250   1.0078250   1.0078250   1.0078250   1.0078250
 NucSpn=           1           0           1           0           1           1           1           1           1           1
 AtZEff=  -0.0000000  -0.0000000  -0.0000000  -0.0000000  -0.0000000  -0.0000000  -0.0000000  -0.0000000  -0.0000000  -0.0000000
 NQMom=    0.0000000   0.0000000   0.0000000   0.0000000   0.0000000   0.0000000   0.0000000   0.0000000   0.0000000   0.0000000
 NMagM=    2.7928460   0.0000000   2.7928460   0.0000000   2.7928460   2.7928460   2.7928460   2.7928460   2.7928460   2.7928460
 AtZNuc=   1.0000000   6.0000000   1.0000000   6.0000000   1.0000000   1.0000000   1.0000000   1.0000000   1.0000000   1.0000000

  Atom       151         152         153         154         155         156         157         158         159         160
 IAtWgt=           1           1           1           1           1           1           1          12           1           1
 AtmWgt=   1.0078250   1.0078250   1.0078250   1.0078250   1.0078250   1.0078250   1.0078250  12.0000000   1.0078250   1.0078250
 NucSpn=           1           1           1           1           1           1           1           0           1           1
 AtZEff=  -0.0000000  -0.0000000  -0.0000000  -0.0000000  -0.0000000  -0.0000000  -0.0000000  -0.0000000  -0.0000000  -0.0000000
 NQMom=    0.0000000   0.0000000   0.0000000   0.0000000   0.0000000   0.0000000   0.0000000   0.0000000   0.0000000   0.0000000
 NMagM=    2.7928460   2.7928460   2.7928460   2.7928460   2.7928460   2.7928460   2.7928460   0.0000000   2.7928460   2.7928460
 AtZNuc=   1.0000000   1.0000000   1.0000000   1.0000000   1.0000000   1.0000000   1.0000000   6.0000000   1.0000000   1.0000000

  Atom       161         162         163         164         165         166         167         168         169         170
 IAtWgt=           1           1           1           1           1           1           1           1           1           1
 AtmWgt=   1.0078250   1.0078250   1.0078250   1.0078250   1.0078250   1.0078250   1.0078250   1.0078250   1.0078250   1.0078250
 NucSpn=           1           1           1           1           1           1           1           1           1           1
 AtZEff=  -0.0000000  -0.0000000  -0.0000000  -0.0000000  -0.0000000  -0.0000000  -0.0000000  -0.0000000  -0.0000000  -0.0000000
 NQMom=    0.0000000   0.0000000   0.0000000   0.0000000   0.0000000   0.0000000   0.0000000   0.0000000   0.0000000   0.0000000
 NMagM=    2.7928460   2.7928460   2.7928460   2.7928460   2.7928460   2.7928460   2.7928460   2.7928460   2.7928460   2.7928460
 AtZNuc=   1.0000000   1.0000000   1.0000000   1.0000000   1.0000000   1.0000000   1.0000000   1.0000000   1.0000000   1.0000000

  Atom       171
 IAtWgt=           1
 AtmWgt=   1.0078250
 NucSpn=           1
 AtZEff=  -0.0000000
 NQMom=    0.0000000
 NMagM=    2.7928460
 AtZNuc=   1.0000000
 Leave Link  101 at Mon Apr  4 10:44:30 2022, MaxMem=  4294967296 cpu:               9.8 elap:               0.2
 (Enter /share/apps/g16/l202.exe)
 Stoichiometry    C68H90N6O6S
 Framework group  C1[X(C68H90N6O6S)]
 Deg. of freedom   507
 Full point group                 C1      NOp   1
 Largest Abelian subgroup         C1      NOp   1
 Largest concise Abelian subgroup C1      NOp   1
                         Standard orientation:                         
 ---------------------------------------------------------------------
 Center     Atomic      Atomic             Coordinates (Angstroms)
 Number     Number       Type             X           Y           Z
 ---------------------------------------------------------------------
      1          6           0       -0.861181   -0.496285   -0.083830
      2          6           0       -1.228698   -1.670848   -0.571097
      3          1           0       -1.095592   -2.660431   -0.145047
      4          6           0       -0.239520   -0.085291    1.108409
      5          1           0       -0.811737    0.017807    2.031829
      6          1           0       -1.252109    0.241075   -1.056377
      7          7           0        1.001008    0.324268    1.166903
      8          1           0        1.580311    0.219907    0.328522
      9          6           0        1.583617    1.010178    2.314998
     10          6           0        2.981206    0.537705    2.644371
     11          6           0        3.481214   -0.759972    2.649476
     12          6           0        3.777138    1.629084    2.996842
     13          6           0        4.815919   -0.956020    3.006280
     14          1           0        2.852196   -1.608555    2.384596
     15          1           0        5.228176   -1.959823    3.023186
     16          6           0        5.624717    0.131405    3.350641
     17          1           0        6.661800   -0.037661    3.623949
     18          6           0        5.108426    1.430424    3.353475
     19          1           0        5.739062    2.271939    3.626984
     20          6           0        2.985541    2.915184    2.929483
     21          1           0        2.675011    3.217045    3.937273
     22          1           0        3.555575    3.740856    2.494450
     23          6           0        1.767634    2.524522    2.068418
     24          1           0        2.009740    2.676892    1.008855
     25          1           0        0.857472    3.087618    2.295819
     26          1           0        0.902853    0.830009    3.156719
     27          6           0        5.505580   -3.517906    0.683752
     28          6           0        5.037111   -4.481582   -0.406417
     29          1           0        5.898969   -4.935180   -0.912057
     30          1           0        4.415945   -5.284259    0.001107
     31          1           0        4.439188   -3.962494   -1.163201
     32          6           0        6.286034   -4.247177    1.784359
     33          1           0        7.128305   -4.782938    1.324345
     34          1           0        6.735473   -3.503391    2.456936
     35          6           0        5.435172   -5.215150    2.604576
     36          1           0        6.007905   -5.641729    3.433109
     37          1           0        4.563075   -4.700807    3.025994
     38          1           0        5.065963   -6.045367    1.995723
     39          6           0        5.436209   -1.960383   -3.531171
     40          6           0        4.611894   -0.710730   -3.229817
     41          1           0        4.973384   -0.231300   -2.310313
     42          1           0        4.754489    0.024721   -4.028395
     43          6           0        3.110645   -1.013927   -3.125125
     44          1           0        2.527774   -0.087289   -3.075129
     45          1           0        2.763301   -1.561446   -4.003366
     46          6           0        2.753027   -1.850863   -1.915321
     47          8           0        2.263041   -2.981143   -2.008342
     48          7           0        2.990804   -1.279423   -0.699067
     49          1           0        3.697667   -0.552087   -0.595403
     50          1           0        2.868306   -1.889875    0.106288
     51          6           0        4.817521    6.691753   -2.261691
     52          6           0        3.777450    6.138545   -1.281544
     53          1           0        3.739395    6.774983   -0.389068
     54          1           0        2.782739    6.175145   -1.740429
     55          6           0        4.080108    4.714454   -0.881815
     56          6           0        5.082211    4.423975    0.049330
     57          1           0        5.625318    5.239077    0.522885
     58          6           0        5.406828    3.111566    0.381092
     59          1           0        6.193825    2.899630    1.099693
     60          6           0        4.709751    2.061503   -0.216206
     61          8           0        4.986159    0.746754    0.058582
     62          1           0        5.442322    0.664026    0.915082
     63          6           0        3.708910    2.327946   -1.147138
     64          1           0        3.158972    1.507783   -1.602187
     65          6           0        3.403191    3.645585   -1.473473
     66          1           0        2.615514    3.841503   -2.196254
     67          6           0        0.770379    5.756081    0.597735
     68          6           0       -0.425289    4.951756    0.075916
     69          1           0       -0.737440    4.232702    0.840178
     70          1           0       -1.273194    5.629682   -0.083686
     71          6           0       -0.110121    4.216142   -1.204027
     72          6           0        0.076840    4.908850   -2.406385
     73          1           0       -0.036435    5.991178   -2.422263
     74          6           0        0.395512    4.227588   -3.579080
     75          1           0        0.529759    4.779648   -4.504804
     76          6           0        0.535059    2.838234   -3.567493
     77          1           0        0.774749    2.304501   -4.482348
     78          6           0        0.343449    2.133148   -2.380668
     79          1           0        0.396636    1.046474   -2.380964
     80          6           0        0.022995    2.825893   -1.212078
     81          1           0       -0.155683    2.279989   -0.287009
     82          6           0       -6.109529    2.320784    3.201763
     83          6           0       -6.300731    2.672750    1.732888
     84          1           0       -5.369720    2.498641    1.186198
     85          1           0       -6.582242    3.724226    1.615659
     86         16           0       -7.585228    1.624038    0.976754
     87          6           0       -7.197760    1.888865   -0.802062
     88          1           0       -7.329238    2.949435   -1.029371
     89          1           0       -7.987292    1.343276   -1.327216
     90          6           0       -5.837583    1.393510   -1.216267
     91          6           0       -5.635111    0.016620   -1.353301
     92          6           0       -4.395946   -0.513739   -1.703218
     93          1           0       -6.477868   -0.642713   -1.166564
     94          6           0       -4.763023    2.267586   -1.468840
     95          6           0       -4.914158    3.770109   -1.404548
     96          1           0       -5.599439    4.136024   -2.177489
     97          1           0       -5.306317    4.108351   -0.440183
     98          1           0       -3.946397    4.254593   -1.560993
     99          6           0       -3.528790    1.729036   -1.817547
    100          1           0       -2.681978    2.384176   -2.012622
    101          6           0       -3.296069    0.346605   -1.927440
    102          7           0       -2.035550   -0.094702   -2.230715
    103          6           0       -1.815961   -1.493198   -2.016731
    104          6           0       -0.649969   -1.964053   -2.888810
    105          8           0        0.206742   -1.213471   -3.307989
    106          7           0       -0.583195   -3.322501   -3.030780
    107          1           0        0.293607   -3.715675   -3.359986
    108          6           0       -1.631256   -4.216729   -2.752315
    109          8           0       -1.419018   -5.412538   -2.858450
    110          7           0       -2.863903   -3.701433   -2.424809
    111          6           0       -2.995015   -2.426757   -2.158474
    112          7           0       -4.214314   -1.908012   -1.908974
    113          6           0       -5.399946   -2.758502   -1.965763
    114          6           0       -5.299491   -1.524811    2.120410
    115          6           0       -3.801251   -1.514905    2.427506
    116          1           0       -3.603736   -2.122666    3.318283
    117          1           0       -3.254678   -1.990561    1.599732
    118          6           0       -3.232931   -0.131777    2.640368
    119          6           0       -3.301286    0.832026    1.625365
    120          1           0       -3.801766    0.594475    0.688413
    121          6           0       -2.717717    2.085708    1.771867
    122          1           0       -2.769559    2.818148    0.969294
    123          6           0       -2.062254    2.409191    2.963565
    124          8           0       -1.511447    3.653775    3.068632
    125          1           0       -1.129138    3.764675    3.952532
    126          6           0       -1.990062    1.469451    3.992327
    127          1           0       -1.484769    1.719618    4.922399
    128          6           0       -2.575363    0.213545    3.823187
    129          1           0       -2.505233   -0.513635    4.628391
    130          6           0       -4.212349   -4.643137    0.591070
    131          6           0       -3.286382   -5.014947    1.751727
    132          1           0       -3.596197   -4.481712    2.658260
    133          1           0       -3.394313   -6.084870    1.970625
    134          6           0       -1.836312   -4.697953    1.461807
    135          6           0       -1.074072   -3.901496    2.320930
    136          1           0       -1.528472   -3.507749    3.227422
    137          6           0        0.255007   -3.590329    2.039252
    138          1           0        0.836011   -2.964140    2.710355
    139          6           0        0.844942   -4.073960    0.872786
    140          8           0        2.145327   -3.750347    0.608058
    141          1           0        2.266558   -3.766416   -0.371852
    142          6           0        0.104915   -4.880512    0.004128
    143          1           0        0.554672   -5.248625   -0.914636
    144          6           0       -1.219097   -5.184341    0.303569
    145          1           0       -1.778654   -5.794815   -0.399908
    146          1           0       -5.348277    2.972432    3.642100
    147          1           0       -5.770376    1.286229    3.307570
    148          1           0       -7.036916    2.445038    3.769190
    149          1           0       -5.903467   -2.760290   -0.994770
    150          1           0       -5.086109   -3.768118   -2.214493
    151          1           0       -6.085035   -2.375424   -2.726807
    152          1           0        1.654668    5.115983    0.699886
    153          1           0        0.545856    6.198731    1.573366
    154          1           0        1.028995    6.566349   -0.091561
    155          1           0        4.847595    6.084864   -3.171848
    156          1           0        5.817377    6.676981   -1.816122
    157          1           0        4.584609    7.722778   -2.543305
    158          6           0        6.343245   -2.387395    0.087680
    159          1           0        4.607625   -3.078821    1.144089
    160          1           0        7.232359   -2.789505   -0.413991
    161          1           0        6.682778   -1.692013    0.865036
    162          1           0        5.772690   -1.812437   -0.649708
    163          1           0       -3.969500   -5.206518   -0.314410
    164          1           0       -4.106205   -3.580987    0.342328
    165          1           0       -5.259790   -4.836824    0.844722
    166          1           0        6.503592   -1.727167   -3.581919
    167          1           0        5.135415   -2.397017   -4.488899
    168          1           0        5.300564   -2.727535   -2.761519
    169          1           0       -5.524686   -0.927014    1.230442
    170          1           0       -5.872545   -1.106820    2.954370
    171          1           0       -5.651823   -2.546498    1.944446
 ---------------------------------------------------------------------
 Rotational constants (GHZ):           0.0315270           0.0233901           0.0184865
 Leave Link  202 at Mon Apr  4 10:44:30 2022, MaxMem=  4294967296 cpu:               5.7 elap:               0.1
 (Enter /share/apps/g16/l301.exe)
 Standard basis: 6-311++G(d,p) (5D, 7F)
 Ernie: Thresh=  0.10000D-02 Tol=  0.10000D-05 Strict=F.
 There are  2501 symmetry adapted cartesian basis functions of A   symmetry.
 There are  2420 symmetry adapted basis functions of A   symmetry.
  2420 basis functions,  3740 primitive gaussians,  2501 cartesian basis functions
   302 alpha electrons      302 beta electrons
       nuclear repulsion energy     16581.5457082905 Hartrees.
 IExCor= 1009 DFT=T Ex+Corr=PBE1PBE ExCW=0 ScaHFX=  0.250000
 ScaDFX=  0.750000  0.750000  1.000000  1.000000 ScalE2=  1.000000  1.000000
 IRadAn=      5 IRanWt=     -1 IRanGd=            0 ICorTp=0 IEmpDi=  4
 NAtoms=  171 NActive=  171 NUniq=  171 SFac= 1.00D+00 NAtFMM=   60 NAOKFM=T Big=T
 Integral buffers will be    131072 words long.
 Raffenetti 2 integral format.
 Two-electron integral symmetry is turned on.
 Using the following non-standard input for PCM:
 eps=4.0
 --- end of non-standard input.
 ------------------------------------------------------------------------------
 Polarizable Continuum Model (PCM)
 =================================
 Model                : C-PCM.
 Atomic radii         : UFF (Universal Force Field).
 Polarization charges : Total charges.
 Charge compensation  : None.
 Solution method      : On-the-fly selection.
 Cavity type          : Scaled VdW (van der Waals Surface) (Alpha=1.100).
 Cavity algorithm     : GePol (No added spheres)
                        Default sphere list used, NSphG=  171.
                        Lebedev-Laikov grids with approx.  5.0 points / Ang**2.
                        Smoothing algorithm: York/Karplus (Gamma=1.0000).
                        Polarization charges: spherical gaussians, with
                                              point-specific exponents (IZeta= 3).
                        Self-potential: point-specific (ISelfS= 7).
                        Self-field    : sphere-specific E.n sum rule (ISelfD= 2).
 Solvent              : Water, Eps=   4.000000 Eps(inf)=   1.777849
 ------------------------------------------------------------------------------
 GePol: Number of generator spheres                  =     171
 GePol: Total number of spheres                      =     171
 GePol: Number of exposed spheres                    =     171 (100.00%)
 GePol: Number of points                             =    8607
 GePol: Average weight of points                     =       0.12
 GePol: Minimum weight of points                     =   0.36D-11
 GePol: Maximum weight of points                     =    0.20577
 GePol: Number of points with low weight             =     801
 GePol: Fraction of low-weight points (<1% of avg)   =       9.31%
 GePol: Cavity surface area                          =   1022.187 Ang**2
 GePol: Cavity volume                                =   1570.300 Ang**3
 Leave Link  301 at Mon Apr  4 10:44:31 2022, MaxMem=  4294967296 cpu:               6.0 elap:               0.1
 (Enter /share/apps/g16/l302.exe)
 NPDir=0 NMtPBC=     1 NCelOv=     1 NCel=       1 NClECP=     1 NCelD=      1
         NCelK=      1 NCelE2=     1 NClLst=     1 CellRange=     0.0.
 One-electron integrals computed using PRISM.
 One-electron integral symmetry used in STVInt
 NBasis=  2420 RedAO= T EigKep=  1.02D-06  NBF=  2420
 NBsUse=  2375 1.00D-06 EigRej=  9.43D-07 NBFU=  2375
 Precomputing XC quadrature grid using
 IXCGrd= 4 IRadAn=           5 IRanWt=          -1 IRanGd=           0 AccXCQ= 0.00D+00.
 Generated NRdTot=       0 NPtTot=           0 NUsed=           0 NTot=          32
 NSgBfM=  2092  2072  2075  2087  2092 MxSgAt=   171 MxSgA2=   171.
 Leave Link  302 at Mon Apr  4 10:44:56 2022, MaxMem=  4294967296 cpu:            1596.7 elap:              25.1
 (Enter /share/apps/g16/l303.exe)
 DipDrv:  MaxL=1.
 Leave Link  303 at Mon Apr  4 10:44:57 2022, MaxMem=  4294967296 cpu:              56.7 elap:               1.2
 (Enter /share/apps/g16/l401.exe)
 ExpMin= 3.60D-02 ExpMax= 9.34D+04 ExpMxC= 3.17D+03 IAcc=3 IRadAn=         5 AccDes= 0.00D+00
 Harris functional with IExCor= 1009 and IRadAn=       5 diagonalized for initial guess.
 HarFok:  IExCor= 1009 AccDes= 0.00D+00 IRadAn=         5 IDoV= 1 UseB2=F ITyADJ=14
 ICtDFT=  3500011 ScaDFX=  1.000000  1.000000  1.000000  1.000000
 FoFCou: FMM=F IPFlag=           0 FMFlag=      100000 FMFlg1=        2001
         NFxFlg=           0 DoJE=T BraDBF=F KetDBF=T FulRan=T
         wScrn=  0.000000 ICntrl=       500 IOpCl=  0 I1Cent=   200000004 NGrid=           0
         NMat0=    1 NMatS0=      1 NMatT0=    0 NMatD0=    1 NMtDS0=    0 NMtDT0=    0
 Petite list used in FoFCou.
 Harris En= -3821.36141244283    
 JPrj=0 DoOrth=F DoCkMO=F.
 Leave Link  401 at Mon Apr  4 10:45:39 2022, MaxMem=  4294967296 cpu:            2702.1 elap:              42.4
 (Enter /share/apps/g16/l502.exe)
 Integral symmetry usage will be decided dynamically.
 Closed shell SCF:
 Using DIIS extrapolation, IDIIS=  1040.
 NGot=  4294967296 LenX=  4282273394 LenY=  4276015892
 Requested convergence on RMS density matrix=1.00D-08 within  32 cycles.
 Requested convergence on MAX density matrix=1.00D-06.
 Requested convergence on             energy=1.00D-06.
 No special actions if energy rises.
 Fock matrices will be formed incrementally for  20 cycles.

 Cycle   1  Pass 1  IDiag  1:
 FoFJK:  IHMeth= 1 ICntrl=       0 DoSepK=F KAlg= 0 I1Cent=           0 FoldK=F
 IRaf= 760000000 NMat=       1 IRICut=       1 DoRegI=T DoRafI=F ISym2E= 0 IDoP0=0 IntGTp=1.
 FoFCou: FMM=T IPFlag=           0 FMFlag=      100000 FMFlg1=        2001
         NFxFlg=           0 DoJE=F BraDBF=F KetDBF=F FulRan=T
         wScrn=  0.000000 ICntrl=         0 IOpCl=  0 I1Cent=           0 NGrid=           0
         NMat0=    1 NMatS0=      1 NMatT0=    0 NMatD0=    1 NMtDS0=    0 NMtDT0=    0
 Symmetry not used in FoFCou.
 FMM levels:  10  Number of levels for PrismC:   9
 Inv3:  Mode=1 IEnd=   222241347.
 Iteration    1 A*A^-1 deviation from unit magnitude is 6.84D-14 for   2128.
 Iteration    1 A*A^-1 deviation from orthogonality  is 7.42D-15 for   7644   4848.
 Iteration    1 A^-1*A deviation from unit magnitude is 6.84D-14 for   2128.
 Iteration    1 A^-1*A deviation from orthogonality  is 6.82D-15 for   8497   4177.
 E= -3818.11403515302    
 DIIS: error= 1.44D-02 at cycle   1 NSaved=   1.
 NSaved= 1 IEnMin= 1 EnMin= -3818.11403515302     IErMin= 1 ErrMin= 1.44D-02
 ErrMax= 1.44D-02  0.00D+00 EMaxC= 1.00D-01 BMatC= 2.45D+00 BMatP= 2.45D+00
 IDIUse=3 WtCom= 8.56D-01 WtEn= 1.44D-01
 Coeff-Com:  0.100D+01
 Coeff-En:   0.100D+01
 Coeff:      0.100D+01
 Gap=     0.209 Goal=   None    Shift=    0.000
 GapD=    0.209 DampG=1.000 DampE=0.500 DampFc=0.5000 IDamp=-1.
 Damping current iteration by 5.00D-01
 RMSDP=2.01D-02 MaxDP=2.99D+00              OVMax= 3.52D-01

 Cycle   2  Pass 1  IDiag  1:
 RMSU=  8.82D-03    CP:  8.78D-01
 E= -3819.00409399193     Delta-E=       -0.890058838912 Rises=F Damp=T
 DIIS: error= 6.80D-03 at cycle   2 NSaved=   2.
 NSaved= 2 IEnMin= 2 EnMin= -3819.00409399193     IErMin= 2 ErrMin= 6.80D-03
 ErrMax= 6.80D-03  0.00D+00 EMaxC= 1.00D-01 BMatC= 2.13D-01 BMatP= 2.45D+00
 IDIUse=3 WtCom= 9.32D-01 WtEn= 6.80D-02
 Coeff-Com:  0.610D-01 0.939D+00
 Coeff-En:   0.148D+00 0.852D+00
 Coeff:      0.669D-01 0.933D+00
 Gap=     0.139 Goal=   None    Shift=    0.000
 RMSDP=7.43D-03 MaxDP=1.73D+00 DE=-8.90D-01 OVMax= 3.27D-01

 Cycle   3  Pass 1  IDiag  1:
 RMSU=  4.84D-03    CP:  8.29D-01  3.98D-01
 E= -3820.02900660719     Delta-E=       -1.024912615263 Rises=F Damp=F
 DIIS: error= 1.45D-02 at cycle   3 NSaved=   3.
 NSaved= 3 IEnMin= 3 EnMin= -3820.02900660719     IErMin= 2 ErrMin= 6.80D-03
 ErrMax= 1.45D-02  0.00D+00 EMaxC= 1.00D-01 BMatC= 2.62D-01 BMatP= 2.13D-01
 IDIUse=2 WtCom= 0.00D+00 WtEn= 1.00D+00
 Coeff-En:   0.000D+00 0.000D+00 0.100D+01
 Coeff:      0.000D+00 0.000D+00 0.100D+01
 Gap=     0.087 Goal=   None    Shift=    0.000
 RMSDP=1.03D-02 MaxDP=1.75D+00 DE=-1.02D+00 OVMax= 3.52D-01

 Cycle   4  Pass 1  IDiag  1:
 RMSU=  5.49D-03    CP:  8.20D-01  1.27D+00  1.56D-01
 E= -3819.11718033016     Delta-E=        0.911826277035 Rises=F Damp=F
 DIIS: error= 3.07D-02 at cycle   4 NSaved=   4.
 NSaved= 4 IEnMin= 3 EnMin= -3820.02900660719     IErMin= 2 ErrMin= 6.80D-03
 ErrMax= 3.07D-02  0.00D+00 EMaxC= 1.00D-01 BMatC= 1.34D+00 BMatP= 2.13D-01
 IDIUse=2 WtCom= 0.00D+00 WtEn= 1.00D+00
 Coeff-En:   0.000D+00 0.000D+00 0.786D+00 0.214D+00
 Coeff:      0.000D+00 0.000D+00 0.786D+00 0.214D+00
 Gap=     0.097 Goal=   None    Shift=    0.000
 RMSDP=5.05D-03 MaxDP=8.94D-01 DE= 9.12D-01 OVMax= 2.53D-01

 Cycle   5  Pass 1  IDiag  1:
 RMSU=  1.37D-03    CP:  7.97D-01  8.64D-01  5.22D-01  5.15D-01
 E= -3820.17169236008     Delta-E=       -1.054512029928 Rises=F Damp=F
 DIIS: error= 8.24D-03 at cycle   5 NSaved=   5.
 NSaved= 5 IEnMin= 5 EnMin= -3820.17169236008     IErMin= 2 ErrMin= 6.80D-03
 ErrMax= 8.24D-03  0.00D+00 EMaxC= 1.00D-01 BMatC= 9.30D-02 BMatP= 2.13D-01
 IDIUse=3 WtCom= 9.18D-01 WtEn= 8.24D-02
 Coeff-Com:  0.377D-02 0.870D-02 0.352D+00-0.169D-01 0.653D+00
 Coeff-En:   0.000D+00 0.000D+00 0.306D+00 0.000D+00 0.694D+00
 Coeff:      0.346D-02 0.799D-02 0.348D+00-0.155D-01 0.656D+00
 Gap=     0.113 Goal=   None    Shift=    0.000
 RMSDP=2.19D-03 MaxDP=4.05D-01 DE=-1.05D+00 OVMax= 5.48D-02

 Cycle   6  Pass 1  IDiag  1:
 RMSU=  6.19D-04    CP:  7.99D-01  6.91D-01  7.26D-01  3.27D-01  8.15D-01
 E= -3820.24626794576     Delta-E=       -0.074575585677 Rises=F Damp=F
 DIIS: error= 9.05D-04 at cycle   6 NSaved=   6.
 NSaved= 6 IEnMin= 6 EnMin= -3820.24626794576     IErMin= 6 ErrMin= 9.05D-04
 ErrMax= 9.05D-04  0.00D+00 EMaxC= 1.00D-01 BMatC= 3.20D-03 BMatP= 9.30D-02
 IDIUse=3 WtCom= 9.91D-01 WtEn= 9.05D-03
 Coeff-Com:  0.101D-02-0.505D-03 0.158D+00-0.499D-01 0.468D+00 0.424D+00
 Coeff-En:   0.000D+00 0.000D+00 0.000D+00 0.000D+00 0.000D+00 0.100D+01
 Coeff:      0.997D-03-0.501D-03 0.156D+00-0.495D-01 0.464D+00 0.429D+00
 Gap=     0.120 Goal=   None    Shift=    0.000
 RMSDP=3.99D-04 MaxDP=6.28D-02 DE=-7.46D-02 OVMax= 2.50D-02

 Cycle   7  Pass 1  IDiag  1:
 RMSU=  1.81D-04    CP:  7.97D-01  7.04D-01  7.06D-01  3.41D-01  8.69D-01
                    CP:  5.11D-01
 E= -3820.24942939381     Delta-E=       -0.003161448047 Rises=F Damp=F
 DIIS: error= 2.48D-04 at cycle   7 NSaved=   7.
 NSaved= 7 IEnMin= 7 EnMin= -3820.24942939381     IErMin= 7 ErrMin= 2.48D-04
 ErrMax= 2.48D-04  0.00D+00 EMaxC= 1.00D-01 BMatC= 1.45D-04 BMatP= 3.20D-03
 IDIUse=3 WtCom= 9.98D-01 WtEn= 2.48D-03
 Coeff-Com:  0.436D-03-0.299D-03 0.721D-01-0.292D-01 0.233D+00 0.248D+00
 Coeff-Com:  0.476D+00
 Coeff-En:   0.000D+00 0.000D+00 0.000D+00 0.000D+00 0.000D+00 0.000D+00
 Coeff-En:   0.100D+01
 Coeff:      0.435D-03-0.298D-03 0.719D-01-0.292D-01 0.232D+00 0.247D+00
 Coeff:      0.477D+00
 Gap=     0.119 Goal=   None    Shift=    0.000
 RMSDP=9.38D-05 MaxDP=1.29D-02 DE=-3.16D-03 OVMax= 3.75D-03

 Cycle   8  Pass 1  IDiag  1:
 RMSU=  6.14D-05    CP:  7.98D-01  7.02D-01  7.06D-01  3.40D-01  8.65D-01
                    CP:  5.38D-01  6.36D-01
 E= -3820.24954211226     Delta-E=       -0.000112718448 Rises=F Damp=F
 DIIS: error= 5.09D-05 at cycle   8 NSaved=   8.
 NSaved= 8 IEnMin= 8 EnMin= -3820.24954211226     IErMin= 8 ErrMin= 5.09D-05
 ErrMax= 5.09D-05  0.00D+00 EMaxC= 1.00D-01 BMatC= 1.93D-05 BMatP= 1.45D-04
 IDIUse=1 WtCom= 1.00D+00 WtEn= 0.00D+00
 Coeff-Com:  0.147D-03-0.229D-03 0.148D-01-0.759D-02 0.482D-01 0.653D-01
 Coeff-Com:  0.280D+00 0.599D+00
 Coeff:      0.147D-03-0.229D-03 0.148D-01-0.759D-02 0.482D-01 0.653D-01
 Coeff:      0.280D+00 0.599D+00
 Gap=     0.120 Goal=   None    Shift=    0.000
 RMSDP=3.90D-05 MaxDP=4.73D-03 DE=-1.13D-04 OVMax= 2.41D-03

 Cycle   9  Pass 1  IDiag  1:
 RMSU=  2.84D-05    CP:  7.98D-01  7.02D-01  7.07D-01  3.41D-01  8.73D-01
                    CP:  5.39D-01  7.23D-01  7.15D-01
 E= -3820.24955974943     Delta-E=       -0.000017637180 Rises=F Damp=F
 DIIS: error= 3.11D-05 at cycle   9 NSaved=   9.
 NSaved= 9 IEnMin= 9 EnMin= -3820.24955974943     IErMin= 9 ErrMin= 3.11D-05
 ErrMax= 3.11D-05  0.00D+00 EMaxC= 1.00D-01 BMatC= 3.17D-06 BMatP= 1.93D-05
 IDIUse=1 WtCom= 1.00D+00 WtEn= 0.00D+00
 Coeff-Com:  0.759D-04-0.258D-03 0.443D-03-0.964D-03 0.896D-03 0.113D-01
 Coeff-Com:  0.110D+00 0.380D+00 0.498D+00
 Coeff:      0.759D-04-0.258D-03 0.443D-03-0.964D-03 0.896D-03 0.113D-01
 Coeff:      0.110D+00 0.380D+00 0.498D+00
 Gap=     0.120 Goal=   None    Shift=    0.000
 RMSDP=1.36D-05 MaxDP=2.24D-03 DE=-1.76D-05 OVMax= 2.77D-04

 Cycle  10  Pass 1  IDiag  1:
 RMSU=  7.85D-06    CP:  7.97D-01  7.01D-01  7.07D-01  3.40D-01  8.71D-01
                    CP:  5.42D-01  7.27D-01  7.95D-01  7.43D-01
 E= -3820.24956261428     Delta-E=       -0.000002864846 Rises=F Damp=F
 DIIS: error= 7.56D-06 at cycle  10 NSaved=  10.
 NSaved=10 IEnMin=10 EnMin= -3820.24956261428     IErMin=10 ErrMin= 7.56D-06
 ErrMax= 7.56D-06  0.00D+00 EMaxC= 1.00D-01 BMatC= 2.04D-07 BMatP= 3.17D-06
 IDIUse=1 WtCom= 1.00D+00 WtEn= 0.00D+00
 Coeff-Com:  0.235D-04-0.141D-03-0.104D-02 0.206D-03-0.339D-02 0.227D-02
 Coeff-Com:  0.294D-01 0.140D+00 0.232D+00 0.601D+00
 Coeff:      0.235D-04-0.141D-03-0.104D-02 0.206D-03-0.339D-02 0.227D-02
 Coeff:      0.294D-01 0.140D+00 0.232D+00 0.601D+00
 Gap=     0.120 Goal=   None    Shift=    0.000
 RMSDP=3.77D-06 MaxDP=3.95D-04 DE=-2.86D-06 OVMax= 1.46D-04

 Cycle  11  Pass 1  IDiag  1:
 RMSU=  2.73D-06    CP:  7.98D-01  7.02D-01  7.08D-01  3.40D-01  8.71D-01
                    CP:  5.44D-01  7.32D-01  8.11D-01  7.52D-01  8.83D-01
 E= -3820.24956277188     Delta-E=       -0.000000157597 Rises=F Damp=F
 DIIS: error= 2.54D-06 at cycle  11 NSaved=  11.
 NSaved=11 IEnMin=11 EnMin= -3820.24956277188     IErMin=11 ErrMin= 2.54D-06
 ErrMax= 2.54D-06  0.00D+00 EMaxC= 1.00D-01 BMatC= 5.09D-08 BMatP= 2.04D-07
 IDIUse=1 WtCom= 1.00D+00 WtEn= 0.00D+00
 Coeff-Com: -0.494D-05-0.278D-04-0.869D-03 0.292D-03-0.237D-02 0.289D-03
 Coeff-Com:  0.278D-03 0.262D-01 0.515D-01 0.341D+00 0.583D+00
 Coeff:     -0.494D-05-0.278D-04-0.869D-03 0.292D-03-0.237D-02 0.289D-03
 Coeff:      0.278D-03 0.262D-01 0.515D-01 0.341D+00 0.583D+00
 Gap=     0.120 Goal=   None    Shift=    0.000
 RMSDP=1.86D-06 MaxDP=2.01D-04 DE=-1.58D-07 OVMax= 7.23D-05

 Cycle  12  Pass 1  IDiag  1:
 RMSU=  1.24D-06    CP:  7.98D-01  7.02D-01  7.08D-01  3.40D-01  8.71D-01
                    CP:  5.45D-01  7.32D-01  8.18D-01  7.61D-01  9.20D-01
                    CP:  1.02D+00
 E= -3820.24956281928     Delta-E=       -0.000000047403 Rises=F Damp=F
 DIIS: error= 1.21D-06 at cycle  12 NSaved=  12.
 NSaved=12 IEnMin=12 EnMin= -3820.24956281928     IErMin=12 ErrMin= 1.21D-06
 ErrMax= 1.21D-06  0.00D+00 EMaxC= 1.00D-01 BMatC= 6.80D-09 BMatP= 5.09D-08
 IDIUse=1 WtCom= 1.00D+00 WtEn= 0.00D+00
 Coeff-Com: -0.975D-05 0.175D-04-0.384D-03 0.128D-03-0.820D-03 0.742D-04
 Coeff-Com: -0.441D-02-0.712D-02-0.128D-01 0.813D-01 0.295D+00 0.649D+00
 Coeff:     -0.975D-05 0.175D-04-0.384D-03 0.128D-03-0.820D-03 0.742D-04
 Coeff:     -0.441D-02-0.712D-02-0.128D-01 0.813D-01 0.295D+00 0.649D+00
 Gap=     0.120 Goal=   None    Shift=    0.000
 RMSDP=9.13D-07 MaxDP=1.09D-04 DE=-4.74D-08 OVMax= 3.13D-05

 Cycle  13  Pass 1  IDiag  1:
 RMSU=  4.98D-07    CP:  7.98D-01  7.02D-01  7.08D-01  3.40D-01  8.71D-01
                    CP:  5.45D-01  7.32D-01  8.24D-01  7.68D-01  9.62D-01
                    CP:  1.08D+00  8.89D-01
 E= -3820.24956282559     Delta-E=       -0.000000006308 Rises=F Damp=F
 DIIS: error= 3.08D-07 at cycle  13 NSaved=  13.
 NSaved=13 IEnMin=13 EnMin= -3820.24956282559     IErMin=13 ErrMin= 3.08D-07
 ErrMax= 3.08D-07  0.00D+00 EMaxC= 1.00D-01 BMatC= 6.28D-10 BMatP= 6.80D-09
 IDIUse=1 WtCom= 1.00D+00 WtEn= 0.00D+00
 Coeff-Com: -0.413D-05 0.114D-04-0.552D-04 0.154D-04-0.316D-04 0.122D-03
 Coeff-Com: -0.158D-02-0.519D-02-0.125D-01-0.116D-01 0.389D-01 0.281D+00
 Coeff-Com:  0.711D+00
 Coeff:     -0.413D-05 0.114D-04-0.552D-04 0.154D-04-0.316D-04 0.122D-03
 Coeff:     -0.158D-02-0.519D-02-0.125D-01-0.116D-01 0.389D-01 0.281D+00
 Coeff:      0.711D+00
 Gap=     0.120 Goal=   None    Shift=    0.000
 RMSDP=2.61D-07 MaxDP=4.08D-05 DE=-6.31D-09 OVMax= 1.74D-05

 Cycle  14  Pass 1  IDiag  1:
 RMSU=  1.58D-07    CP:  7.98D-01  7.02D-01  7.08D-01  3.40D-01  8.71D-01
                    CP:  5.46D-01  7.32D-01  8.25D-01  7.68D-01  9.71D-01
                    CP:  1.12D+00  9.56D-01  9.13D-01
 E= -3820.24956282344     Delta-E=        0.000000002150 Rises=F Damp=F
 DIIS: error= 9.32D-08 at cycle  14 NSaved=  14.
 NSaved=14 IEnMin=13 EnMin= -3820.24956282559     IErMin=14 ErrMin= 9.32D-08
 ErrMax= 9.32D-08  0.00D+00 EMaxC= 1.00D-01 BMatC= 1.02D-10 BMatP= 6.28D-10
 IDIUse=1 WtCom= 1.00D+00 WtEn= 0.00D+00
 Coeff-Com: -0.106D-05 0.381D-05 0.935D-05-0.344D-05 0.595D-04 0.491D-04
 Coeff-Com: -0.409D-03-0.190D-02-0.568D-02-0.150D-01-0.145D-01 0.744D-01
 Coeff-Com:  0.399D+00 0.564D+00
 Coeff:     -0.106D-05 0.381D-05 0.935D-05-0.344D-05 0.595D-04 0.491D-04
 Coeff:     -0.409D-03-0.190D-02-0.568D-02-0.150D-01-0.145D-01 0.744D-01
 Coeff:      0.399D+00 0.564D+00
 Gap=     0.120 Goal=   None    Shift=    0.000
 RMSDP=9.92D-08 MaxDP=1.58D-05 DE= 2.15D-09 OVMax= 3.91D-06

 Cycle  15  Pass 1  IDiag  1:
 RMSU=  5.72D-08    CP:  7.98D-01  7.02D-01  7.08D-01  3.40D-01  8.71D-01
                    CP:  5.46D-01  7.32D-01  8.25D-01  7.68D-01  9.73D-01
                    CP:  1.14D+00  9.80D-01  9.49D-01  9.31D-01
 E= -3820.24956282673     Delta-E=       -0.000000003292 Rises=F Damp=F
 DIIS: error= 3.66D-08 at cycle  15 NSaved=  15.
 NSaved=15 IEnMin=15 EnMin= -3820.24956282673     IErMin=15 ErrMin= 3.66D-08
 ErrMax= 3.66D-08  0.00D+00 EMaxC= 1.00D-01 BMatC= 9.47D-12 BMatP= 1.02D-10
 IDIUse=1 WtCom= 1.00D+00 WtEn= 0.00D+00
 Coeff-Com: -0.989D-07 0.742D-06 0.117D-04-0.389D-05 0.371D-04 0.147D-04
 Coeff-Com: -0.584D-04-0.404D-03-0.181D-02-0.631D-02-0.120D-01 0.863D-02
 Coeff-Com:  0.140D+00 0.292D+00 0.581D+00
 Coeff:     -0.989D-07 0.742D-06 0.117D-04-0.389D-05 0.371D-04 0.147D-04
 Coeff:     -0.584D-04-0.404D-03-0.181D-02-0.631D-02-0.120D-01 0.863D-02
 Coeff:      0.140D+00 0.292D+00 0.581D+00
 Gap=     0.120 Goal=   None    Shift=    0.000
 RMSDP=3.10D-08 MaxDP=4.07D-06 DE=-3.29D-09 OVMax= 1.10D-06

 Cycle  16  Pass 1  IDiag  1:
 RMSU=  1.82D-08    CP:  7.98D-01  7.02D-01  7.08D-01  3.40D-01  8.71D-01
                    CP:  5.46D-01  7.32D-01  8.25D-01  7.68D-01  9.73D-01
                    CP:  1.14D+00  9.87D-01  9.73D-01  9.37D-01  8.48D-01
 E= -3820.24956282447     Delta-E=        0.000000002263 Rises=F Damp=F
 DIIS: error= 1.59D-08 at cycle  16 NSaved=  16.
 NSaved=16 IEnMin=15 EnMin= -3820.24956282673     IErMin=16 ErrMin= 1.59D-08
 ErrMax= 1.59D-08  0.00D+00 EMaxC= 1.00D-01 BMatC= 1.60D-12 BMatP= 9.47D-12
 IDIUse=1 WtCom= 1.00D+00 WtEn= 0.00D+00
 Coeff-Com:  0.150D-06-0.238D-06 0.622D-05-0.178D-05 0.136D-04 0.124D-05
 Coeff-Com:  0.319D-04 0.878D-04-0.195D-03-0.119D-02-0.463D-02-0.680D-02
 Coeff-Com:  0.203D-01 0.768D-01 0.329D+00 0.587D+00
 Coeff:      0.150D-06-0.238D-06 0.622D-05-0.178D-05 0.136D-04 0.124D-05
 Coeff:      0.319D-04 0.878D-04-0.195D-03-0.119D-02-0.463D-02-0.680D-02
 Coeff:      0.203D-01 0.768D-01 0.329D+00 0.587D+00
 Gap=     0.120 Goal=   None    Shift=    0.000
 RMSDP=1.06D-08 MaxDP=1.39D-06 DE= 2.26D-09 OVMax= 5.85D-07

 Cycle  17  Pass 1  IDiag  1:
 RMSU=  7.21D-09    CP:  7.98D-01  7.02D-01  7.08D-01  3.40D-01  8.71D-01
                    CP:  5.46D-01  7.32D-01  8.25D-01  7.68D-01  9.74D-01
                    CP:  1.14D+00  9.87D-01  9.79D-01  9.53D-01  8.91D-01
                    CP:  8.31D-01
 E= -3820.24956282389     Delta-E=        0.000000000582 Rises=F Damp=F
 DIIS: error= 4.14D-09 at cycle  17 NSaved=  17.
 NSaved=17 IEnMin=15 EnMin= -3820.24956282673     IErMin=17 ErrMin= 4.14D-09
 ErrMax= 4.14D-09  0.00D+00 EMaxC= 1.00D-01 BMatC= 1.36D-13 BMatP= 1.60D-12
 IDIUse=1 WtCom= 1.00D+00 WtEn= 0.00D+00
 Coeff-Com:  0.862D-07-0.186D-06 0.155D-05-0.450D-06 0.219D-05-0.167D-05
 Coeff-Com:  0.192D-04 0.851D-04 0.917D-04 0.215D-03-0.699D-03-0.412D-02
 Coeff-Com: -0.590D-02 0.100D-02 0.867D-01 0.276D+00 0.646D+00
 Coeff:      0.862D-07-0.186D-06 0.155D-05-0.450D-06 0.219D-05-0.167D-05
 Coeff:      0.192D-04 0.851D-04 0.917D-04 0.215D-03-0.699D-03-0.412D-02
 Coeff:     -0.590D-02 0.100D-02 0.867D-01 0.276D+00 0.646D+00
 Gap=     0.120 Goal=   None    Shift=    0.000
 RMSDP=4.17D-09 MaxDP=7.67D-07 DE= 5.82D-10 OVMax= 1.70D-07

 Error on total polarization charges =  0.02364
 SCF Done:  E(RPBE1PBE) =  -3820.24956282     A.U. after   17 cycles
            NFock= 17  Conv=0.42D-08     -V/T= 2.0040
 KE= 3.805029508072D+03 PE=-4.207250471281D+04 EE= 1.786567993363D+04
 Leave Link  502 at Mon Apr  4 12:58:39 2022, MaxMem=  4294967296 cpu:          507053.7 elap:            7979.9
 (Enter /share/apps/g16/l508.exe)
 QCSCF skips out because SCF is already converged.
 Leave Link  508 at Mon Apr  4 12:58:40 2022, MaxMem=  4294967296 cpu:               2.9 elap:               0.1
 (Enter /share/apps/g16/l601.exe)
 Copying SCF densities to generalized density rwf, IOpCl= 0 IROHF=0.
 Hyperfine terms turned off by default for NAtoms > 100.

 **********************************************************************

            Population analysis using the SCF Density.

 **********************************************************************

 Orbital symmetries:
       Occupied  (A) (A) (A) (A) (A) (A) (A) (A) (A) (A) (A) (A)
                 (A) (A) (A) (A) (A) (A) (A) (A) (A) (A) (A) (A)
                 (A) (A) (A) (A) (A) (A) (A) (A) (A) (A) (A) (A)
                 (A) (A) (A) (A) (A) (A) (A) (A) (A) (A) (A) (A)
                 (A) (A) (A) (A) (A) (A) (A) (A) (A) (A) (A) (A)
                 (A) (A) (A) (A) (A) (A) (A) (A) (A) (A) (A) (A)
                 (A) (A) (A) (A) (A) (A) (A) (A) (A) (A) (A) (A)
                 (A) (A) (A) (A) (A) (A) (A) (A) (A) (A) (A) (A)
                 (A) (A) (A) (A) (A) (A) (A) (A) (A) (A) (A) (A)
                 (A) (A) (A) (A) (A) (A) (A) (A) (A) (A) (A) (A)
                 (A) (A) (A) (A) (A) (A) (A) (A) (A) (A) (A) (A)
                 (A) (A) (A) (A) (A) (A) (A) (A) (A) (A) (A) (A)
                 (A) (A) (A) (A) (A) (A) (A) (A) (A) (A) (A) (A)
                 (A) (A) (A) (A) (A) (A) (A) (A) (A) (A) (A) (A)
                 (A) (A) (A) (A) (A) (A) (A) (A) (A) (A) (A) (A)
                 (A) (A) (A) (A) (A) (A) (A) (A) (A) (A) (A) (A)
                 (A) (A) (A) (A) (A) (A) (A) (A) (A) (A) (A) (A)
                 (A) (A) (A) (A) (A) (A) (A) (A) (A) (A) (A) (A)
                 (A) (A) (A) (A) (A) (A) (A) (A) (A) (A) (A) (A)
                 (A) (A) (A) (A) (A) (A) (A) (A) (A) (A) (A) (A)
                 (A) (A) (A) (A) (A) (A) (A) (A) (A) (A) (A) (A)
                 (A) (A) (A) (A) (A) (A) (A) (A) (A) (A) (A) (A)
                 (A) (A) (A) (A) (A) (A) (A) (A) (A) (A) (A) (A)
                 (A) (A) (A) (A) (A) (A) (A) (A) (A) (A) (A) (A)
                 (A) (A) (A) (A) (A) (A) (A) (A) (A) (A) (A) (A)
                 (A) (A)
       Virtual   (A) (A) (A) (A) (A) (A) (A) (A) (A) (A) (A) (A)
                 (A) (A) (A) (A) (A) (A) (A) (A) (A) (A) (A) (A)
                 (A) (A) (A) (A) (A) (A) (A) (A) (A) (A) (A) (A)
                 (A) (A) (A) (A) (A) (A) (A) (A) (A) (A) (A) (A)
                 (A) (A) (A) (A) (A) (A) (A) (A) (A) (A) (A) (A)
                 (A) (A) (A) (A) (A) (A) (A) (A) (A) (A) (A) (A)
                 (A) (A) (A) (A) (A) (A) (A) (A) (A) (A) (A) (A)
                 (A) (A) (A) (A) (A) (A) (A) (A) (A) (A) (A) (A)
                 (A) (A) (A) (A) (A) (A) (A) (A) (A) (A) (A) (A)
                 (A) (A) (A) (A) (A) (A) (A) (A) (A) (A) (A) (A)
                 (A) (A) (A) (A) (A) (A) (A) (A) (A) (A) (A) (A)
                 (A) (A) (A) (A) (A) (A) (A) (A) (A) (A) (A) (A)
                 (A) (A) (A) (A) (A) (A) (A) (A) (A) (A) (A) (A)
                 (A) (A) (A) (A) (A) (A) (A) (A) (A) (A) (A) (A)
                 (A) (A) (A) (A) (A) (A) (A) (A) (A) (A) (A) (A)
                 (A) (A) (A) (A) (A) (A) (A) (A) (A) (A) (A) (A)
                 (A) (A) (A) (A) (A) (A) (A) (A) (A) (A) (A) (A)
                 (A) (A) (A) (A) (A) (A) (A) (A) (A) (A) (A) (A)
                 (A) (A) (A) (A) (A) (A) (A) (A) (A) (A) (A) (A)
                 (A) (A) (A) (A) (A) (A) (A) (A) (A) (A) (A) (A)
                 (A) (A) (A) (A) (A) (A) (A) (A) (A) (A) (A) (A)
                 (A) (A) (A) (A) (A) (A) (A) (A) (A) (A) (A) (A)
                 (A) (A) (A) (A) (A) (A) (A) (A) (A) (A) (A) (A)
                 (A) (A) (A) (A) (A) (A) (A) (A) (A) (A) (A) (A)
                 (A) (A) (A) (A) (A) (A) (A) (A) (A) (A) (A) (A)
                 (A) (A) (A) (A) (A) (A) (A) (A) (A) (A) (A) (A)
                 (A) (A) (A) (A) (A) (A) (A) (A) (A) (A) (A) (A)
                 (A) (A) (A) (A) (A) (A) (A) (A) (A) (A) (A) (A)
                 (A) (A) (A) (A) (A) (A) (A) (A) (A) (A) (A) (A)
                 (A) (A) (A) (A) (A) (A) (A) (A) (A) (A) (A) (A)
                 (A) (A) (A) (A) (A) (A) (A) (A) (A) (A) (A) (A)
                 (A) (A) (A) (A) (A) (A) (A) (A) (A) (A) (A) (A)
                 (A) (A) (A) (A) (A) (A) (A) (A) (A) (A) (A) (A)
                 (A) (A) (A) (A) (A) (A) (A) (A) (A) (A) (A) (A)
                 (A) (A) (A) (A) (A) (A) (A) (A) (A) (A) (A) (A)
                 (A) (A) (A) (A) (A) (A) (A) (A) (A) (A) (A) (A)
                 (A) (A) (A) (A) (A) (A) (A) (A) (A) (A) (A) (A)
                 (A) (A) (A) (A) (A) (A) (A) (A) (A) (A) (A) (A)
                 (A) (A) (A) (A) (A) (A) (A) (A) (A) (A) (A) (A)
                 (A) (A) (A) (A) (A) (A) (A) (A) (A) (A) (A) (A)
                 (A) (A) (A) (A) (A) (A) (A) (A) (A) (A) (A) (A)
                 (A) (A) (A) (A) (A) (A) (A) (A) (A) (A) (A) (A)
                 (A) (A) (A) (A) (A) (A) (A) (A) (A) (A) (A) (A)
                 (A) (A) (A) (A) (A) (A) (A) (A) (A) (A) (A) (A)
                 (A) (A) (A) (A) (A) (A) (A) (A) (A) (A) (A) (A)
                 (A) (A) (A) (A) (A) (A) (A) (A) (A) (A) (A) (A)
                 (A) (A) (A) (A) (A) (A) (A) (A) (A) (A) (A) (A)
                 (A) (A) (A) (A) (A) (A) (A) (A) (A) (A) (A) (A)
                 (A) (A) (A) (A) (A) (A) (A) (A) (A) (A) (A) (A)
                 (A) (A) (A) (A) (A) (A) (A) (A) (A) (A) (A) (A)
                 (A) (A) (A) (A) (A) (A) (A) (A) (A) (A) (A) (A)
                 (A) (A) (A) (A) (A) (A) (A) (A) (A) (A) (A) (A)
                 (A) (A) (A) (A) (A) (A) (A) (A) (A) (A) (A) (A)
                 (A) (A) (A) (A) (A) (A) (A) (A) (A) (A) (A) (A)
                 (A) (A) (A) (A) (A) (A) (A) (A) (A) (A) (A) (A)
                 (A) (A) (A) (A) (A) (A) (A) (A) (A) (A) (A) (A)
                 (A) (A) (A) (A) (A) (A) (A) (A) (A) (A) (A) (A)
                 (A) (A) (A) (A) (A) (A) (A) (A) (A) (A) (A) (A)
                 (A) (A) (A) (A) (A) (A) (A) (A) (A) (A) (A) (A)
                 (A) (A) (A) (A) (A) (A) (A) (A) (A) (A) (A) (A)
                 (A) (A) (A) (A) (A) (A) (A) (A) (A) (A) (A) (A)
                 (A) (A) (A) (A) (A) (A) (A) (A) (A) (A) (A) (A)
                 (A) (A) (A) (A) (A) (A) (A) (A) (A) (A) (A) (A)
                 (A) (A) (A) (A) (A) (A) (A) (A) (A) (A) (A) (A)
                 (A) (A) (A) (A) (A) (A) (A) (A) (A) (A) (A) (A)
                 (A) (A) (A) (A) (A) (A) (A) (A) (A) (A) (A) (A)
                 (A) (A) (A) (A) (A) (A) (A) (A) (A) (A) (A) (A)
                 (A) (A) (A) (A) (A) (A) (A) (A) (A) (A) (A) (A)
                 (A) (A) (A) (A) (A) (A) (A) (A) (A) (A) (A) (A)
                 (A) (A) (A) (A) (A) (A) (A) (A) (A) (A) (A) (A)
                 (A) (A) (A) (A) (A) (A) (A) (A) (A) (A) (A) (A)
                 (A) (A) (A) (A) (A) (A) (A) (A) (A) (A) (A) (A)
                 (A) (A) (A) (A) (A) (A) (A) (A) (A) (A) (A) (A)
                 (A) (A) (A) (A) (A) (A) (A) (A) (A) (A) (A) (A)
                 (A) (A) (A) (A) (A) (A) (A) (A) (A) (A) (A) (A)
                 (A) (A) (A) (A) (A) (A) (A) (A) (A) (A) (A) (A)
                 (A) (A) (A) (A) (A) (A) (A) (A) (A) (A) (A) (A)
                 (A) (A) (A) (A) (A) (A) (A) (A) (A) (A) (A) (A)
                 (A) (A) (A) (A) (A) (A) (A) (A) (A) (A) (A) (A)
                 (A) (A) (A) (A) (A) (A) (A) (A) (A) (A) (A) (A)
                 (A) (A) (A) (A) (A) (A) (A) (A) (A) (A) (A) (A)
                 (A) (A) (A) (A) (A) (A) (A) (A) (A) (A) (A) (A)
                 (A) (A) (A) (A) (A) (A) (A) (A) (A) (A) (A) (A)
                 (A) (A) (A) (A) (A) (A) (A) (A) (A) (A) (A) (A)
                 (A) (A) (A) (A) (A) (A) (A) (A) (A) (A) (A) (A)
                 (A) (A) (A) (A) (A) (A) (A) (A) (A) (A) (A) (A)
                 (A) (A) (A) (A) (A) (A) (A) (A) (A) (A) (A) (A)
                 (A) (A) (A) (A) (A) (A) (A) (A) (A) (A) (A) (A)
                 (A) (A) (A) (A) (A) (A) (A) (A) (A) (A) (A) (A)
                 (A) (A) (A) (A) (A) (A) (A) (A) (A) (A) (A) (A)
                 (A) (A) (A) (A) (A) (A) (A) (A) (A) (A) (A) (A)
                 (A) (A) (A) (A) (A) (A) (A) (A) (A) (A) (A) (A)
                 (A) (A) (A) (A) (A) (A) (A) (A) (A) (A) (A) (A)
                 (A) (A) (A) (A) (A) (A) (A) (A) (A) (A) (A) (A)
                 (A) (A) (A) (A) (A) (A) (A) (A) (A) (A) (A) (A)
                 (A) (A) (A) (A) (A) (A) (A) (A) (A) (A) (A) (A)
                 (A) (A) (A) (A) (A) (A) (A) (A) (A) (A) (A) (A)
                 (A) (A) (A) (A) (A) (A) (A) (A) (A) (A) (A) (A)
                 (A) (A) (A) (A) (A) (A) (A) (A) (A) (A) (A) (A)
                 (A) (A) (A) (A) (A) (A) (A) (A) (A) (A) (A) (A)
                 (A) (A) (A) (A) (A) (A) (A) (A) (A) (A) (A) (A)
                 (A) (A) (A) (A) (A) (A) (A) (A) (A) (A) (A) (A)
                 (A) (A) (A) (A) (A) (A) (A) (A) (A) (A) (A) (A)
                 (A) (A) (A) (A) (A) (A) (A) (A) (A) (A) (A) (A)
                 (A) (A) (A) (A) (A) (A) (A) (A) (A) (A) (A) (A)
                 (A) (A) (A) (A) (A) (A) (A) (A) (A) (A) (A) (A)
                 (A) (A) (A) (A) (A) (A) (A) (A) (A) (A) (A) (A)
                 (A) (A) (A) (A) (A) (A) (A) (A) (A) (A) (A) (A)
                 (A) (A) (A) (A) (A) (A) (A) (A) (A) (A) (A) (A)
                 (A) (A) (A) (A) (A) (A) (A) (A) (A) (A) (A) (A)
                 (A) (A) (A) (A) (A) (A) (A) (A) (A) (A) (A) (A)
                 (A) (A) (A) (A) (A) (A) (A) (A) (A) (A) (A) (A)
                 (A) (A) (A) (A) (A) (A) (A) (A) (A) (A) (A) (A)
                 (A) (A) (A) (A) (A) (A) (A) (A) (A) (A) (A) (A)
                 (A) (A) (A) (A) (A) (A) (A) (A) (A) (A) (A) (A)
                 (A) (A) (A) (A) (A) (A) (A) (A) (A) (A) (A) (A)
                 (A) (A) (A) (A) (A) (A) (A) (A) (A) (A) (A) (A)
                 (A) (A) (A) (A) (A) (A) (A) (A) (A) (A) (A) (A)
                 (A) (A) (A) (A) (A) (A) (A) (A) (A) (A) (A) (A)
                 (A) (A) (A) (A) (A) (A) (A) (A) (A) (A) (A) (A)
                 (A) (A) (A) (A) (A) (A) (A) (A) (A) (A) (A) (A)
                 (A) (A) (A) (A) (A) (A) (A) (A) (A) (A) (A) (A)
                 (A) (A) (A) (A) (A) (A) (A) (A) (A) (A) (A) (A)
                 (A) (A) (A) (A) (A) (A) (A) (A) (A) (A) (A) (A)
                 (A) (A) (A) (A) (A) (A) (A) (A) (A) (A) (A) (A)
                 (A) (A) (A) (A) (A) (A) (A) (A) (A) (A) (A) (A)
                 (A) (A) (A) (A) (A) (A) (A) (A) (A) (A) (A) (A)
                 (A) (A) (A) (A) (A) (A) (A) (A) (A) (A) (A) (A)
                 (A) (A) (A) (A) (A) (A) (A) (A) (A) (A) (A) (A)
                 (A) (A) (A) (A) (A) (A) (A) (A) (A) (A) (A) (A)
                 (A) (A) (A) (A) (A) (A) (A) (A) (A) (A) (A) (A)
                 (A) (A) (A) (A) (A) (A) (A) (A) (A) (A) (A) (A)
                 (A) (A) (A) (A) (A) (A) (A) (A) (A) (A) (A) (A)
                 (A) (A) (A) (A) (A) (A) (A) (A) (A) (A) (A) (A)
                 (A) (A) (A) (A) (A) (A) (A) (A) (A) (A) (A) (A)
                 (A) (A) (A) (A) (A) (A) (A) (A) (A) (A) (A) (A)
                 (A) (A) (A) (A) (A) (A) (A) (A) (A) (A) (A) (A)
                 (A) (A) (A) (A) (A) (A) (A) (A) (A) (A) (A) (A)
                 (A) (A) (A) (A) (A) (A) (A) (A) (A) (A) (A) (A)
                 (A) (A) (A) (A) (A) (A) (A) (A) (A) (A) (A) (A)
                 (A) (A) (A) (A) (A) (A) (A) (A) (A) (A) (A) (A)
                 (A) (A) (A) (A) (A) (A) (A) (A) (A) (A) (A) (A)
                 (A) (A) (A) (A) (A) (A) (A) (A) (A) (A) (A) (A)
                 (A) (A) (A) (A) (A) (A) (A) (A) (A) (A) (A) (A)
                 (A) (A) (A) (A) (A) (A) (A) (A) (A) (A) (A) (A)
                 (A) (A) (A) (A) (A) (A) (A) (A) (A) (A) (A) (A)
                 (A) (A) (A) (A) (A) (A) (A) (A) (A) (A) (A) (A)
                 (A) (A) (A) (A) (A) (A) (A) (A) (A) (A) (A) (A)
                 (A) (A) (A) (A) (A) (A) (A) (A) (A) (A) (A) (A)
                 (A) (A) (A) (A) (A) (A) (A) (A) (A) (A) (A) (A)
                 (A) (A) (A) (A) (A) (A) (A) (A) (A) (A) (A) (A)
                 (A) (A) (A) (A) (A) (A) (A) (A) (A) (A) (A) (A)
                 (A) (A) (A) (A) (A) (A) (A) (A) (A) (A) (A) (A)
                 (A) (A) (A) (A) (A) (A) (A) (A) (A) (A) (A) (A)
                 (A) (A) (A) (A) (A) (A) (A) (A) (A) (A) (A) (A)
                 (A) (A) (A) (A) (A) (A) (A) (A) (A) (A) (A) (A)
                 (A) (A) (A) (A) (A) (A) (A) (A) (A) (A) (A) (A)
                 (A) (A) (A) (A) (A) (A) (A) (A) (A) (A) (A) (A)
                 (A) (A) (A) (A) (A) (A) (A) (A) (A) (A) (A) (A)
                 (A) (A) (A) (A) (A) (A) (A) (A) (A) (A) (A) (A)
                 (A) (A) (A) (A) (A) (A) (A) (A) (A) (A) (A) (A)
                 (A) (A) (A) (A) (A) (A) (A) (A) (A) (A) (A) (A)
[...]
 Alpha virt. eigenvalues --    3.04465   3.04766   3.05148   3.05366   3.05487
 Alpha virt. eigenvalues --    3.06012   3.06262   3.06552   3.06570   3.06960
 Alpha virt. eigenvalues --    3.07317   3.07650   3.07762   3.08359   3.08560
 Alpha virt. eigenvalues --    3.08843   3.09119   3.09385   3.09656   3.09839
 Alpha virt. eigenvalues --    3.10191   3.10691   3.10943   3.11119   3.11470
 Alpha virt. eigenvalues --    3.11619   3.12272   3.12364   3.12581   3.12979
 Alpha virt. eigenvalues --    3.13613   3.13792   3.14020   3.14114   3.14939
 Alpha virt. eigenvalues --    3.15085   3.15358   3.15693   3.15922   3.16308
 Alpha virt. eigenvalues --    3.16688   3.16768   3.17392   3.17610   3.17959
 Alpha virt. eigenvalues --    3.18340   3.18401   3.18638   3.18873   3.19448
 Alpha virt. eigenvalues --    3.19830   3.20123   3.20843   3.20966   3.21574
 Alpha virt. eigenvalues --    3.21696   3.22127   3.22525   3.22961   3.23341
 Alpha virt. eigenvalues --    3.23686   3.24255   3.24455   3.24928   3.25139
 Alpha virt. eigenvalues --    3.25498   3.25637   3.26131   3.26830   3.27125
 Alpha virt. eigenvalues --    3.27631   3.27989   3.28362   3.28790   3.29120
 Alpha virt. eigenvalues --    3.29360   3.29639   3.29760   3.30081   3.30413
 Alpha virt. eigenvalues --    3.31385   3.31872   3.32193   3.32732   3.32876
 Alpha virt. eigenvalues --    3.33507   3.34110   3.34389   3.34980   3.35106
 Alpha virt. eigenvalues --    3.35849   3.36290   3.36594   3.37106   3.37848
 Alpha virt. eigenvalues --    3.37919   3.38613   3.39402   3.40045   3.40453
 Alpha virt. eigenvalues --    3.40971   3.41221   3.41672   3.42255   3.42672
 Alpha virt. eigenvalues --    3.43132   3.43728   3.44163   3.44876   3.45015
 Alpha virt. eigenvalues --    3.45235   3.45510   3.46092   3.46707   3.47435
 Alpha virt. eigenvalues --    3.47791   3.48120   3.48573   3.49870   3.51516
 Alpha virt. eigenvalues --    3.51744   3.52041   3.52754   3.53759   3.54072
 Alpha virt. eigenvalues --    3.54352   3.54794   3.55509   3.56537   3.57143
 Alpha virt. eigenvalues --    3.57314   3.57625   3.58404   3.59065   3.60645
 Alpha virt. eigenvalues --    3.62901   3.63160   3.63554   3.64059   3.64911
 Alpha virt. eigenvalues --    3.65106   3.65757   3.66087   3.66540   3.66774
 Alpha virt. eigenvalues --    3.67053   3.67809   3.68433   3.69332   3.70606
 Alpha virt. eigenvalues --    3.70978   3.71495   3.73713   3.74805   3.75821
 Alpha virt. eigenvalues --    3.76515   3.76781   3.76950   3.78166   3.79798
 Alpha virt. eigenvalues --    3.80767   3.81658   3.82213   3.82428   3.82560
 Alpha virt. eigenvalues --    3.83194   3.83590   3.83744   3.84217   3.84401
 Alpha virt. eigenvalues --    3.84761   3.84982   3.85210   3.85471   3.85644
 Alpha virt. eigenvalues --    3.85703   3.86122   3.86219   3.86620   3.87174
 Alpha virt. eigenvalues --    3.87262   3.87562   3.87814   3.88112   3.88566
 Alpha virt. eigenvalues --    3.88745   3.89257   3.89638   3.89830   3.90263
 Alpha virt. eigenvalues --    3.90511   3.90602   3.91229   3.91514   3.92518
 Alpha virt. eigenvalues --    3.92903   3.93452   3.93772   3.94111   3.94369
 Alpha virt. eigenvalues --    3.95257   3.96114   3.97477   3.98764   4.00676
 Alpha virt. eigenvalues --    4.01235   4.03245   4.04934   4.06194   4.06317
 Alpha virt. eigenvalues --    4.07103   4.07223   4.08419   4.08793   4.09333
 Alpha virt. eigenvalues --    4.10061   4.10741   4.11592   4.12278   4.13865
 Alpha virt. eigenvalues --    4.14820   4.15163   4.16932   4.17598   4.19666
 Alpha virt. eigenvalues --    4.21231   4.21432   4.22129   4.22284   4.22549
 Alpha virt. eigenvalues --    4.23151   4.23385   4.24787   4.25211   4.25345
 Alpha virt. eigenvalues --    4.25409   4.25747   4.26288   4.26694   4.27833
 Alpha virt. eigenvalues --    4.28306   4.28534   4.28850   4.29464   4.30028
 Alpha virt. eigenvalues --    4.30414   4.31828   4.32646   4.33647   4.34344
 Alpha virt. eigenvalues --    4.36049   4.36670   4.37050   4.38243   4.40228
 Alpha virt. eigenvalues --    4.40296   4.41083   4.41922   4.42861   4.43319
 Alpha virt. eigenvalues --    4.44029   4.44343   4.56480   4.72929   4.82784
 Alpha virt. eigenvalues --    4.86174   4.87718   4.88420   4.88975   4.89498
 Alpha virt. eigenvalues --    4.90296   4.90428   4.91119   4.94411   4.99781
 Alpha virt. eigenvalues --    5.01378   5.06916   5.13152   5.21769   5.22722
 Alpha virt. eigenvalues --    5.25261   5.30523   5.30897   5.31520   5.34184
 Alpha virt. eigenvalues --    5.37323   5.42932   5.44735   5.49905   5.57529
 Alpha virt. eigenvalues --    5.63304   5.66793   5.83359   5.86309   5.88938
 Alpha virt. eigenvalues --    5.92167   5.96740   6.01517   8.11902  17.53693
 Alpha virt. eigenvalues --   17.63749  17.65068  23.80112  23.81837  23.83335
 Alpha virt. eigenvalues --   23.84075  23.85917  23.87754  23.94339  23.97988
 Alpha virt. eigenvalues --   23.98496  23.98881  23.99588  24.00091  24.00681
 Alpha virt. eigenvalues --   24.01185  24.01616  24.01692  24.01903  24.02793
 Alpha virt. eigenvalues --   24.03615  24.04289  24.05311  24.06205  24.07192
 Alpha virt. eigenvalues --   24.08295  24.09904  24.10772  24.10909  24.11167
 Alpha virt. eigenvalues --   24.11401  24.11463  24.11894  24.12081  24.12337
 Alpha virt. eigenvalues --   24.12656  24.12995  24.13282  24.13697  24.14418
 Alpha virt. eigenvalues --   24.14471  24.14615  24.15318  24.15615  24.16081
 Alpha virt. eigenvalues --   24.16277  24.16651  24.17127  24.17582  24.18130
 Alpha virt. eigenvalues --   24.18325  24.18679  24.19467  24.20664  24.21032
 Alpha virt. eigenvalues --   24.21302  24.21610  24.21944  24.22684  24.22956
 Alpha virt. eigenvalues --   24.23130  24.23423  24.24104  24.29247  24.29568
 Alpha virt. eigenvalues --   24.30236  24.30573  24.31062  24.31245  24.47573
 Alpha virt. eigenvalues --   35.73277  35.77377  35.78068  35.83599  35.86034
 Alpha virt. eigenvalues --   35.92350  50.11352  50.13638  50.14904  50.19753
 Alpha virt. eigenvalues --   50.20414  50.22871 189.50671
          Condensed to atoms (all electrons):
 Mulliken charges:
               1
     1  C    0.085988
     2  C    0.412694
     3  H    0.209186
     4  C   -0.893673
     5  H    0.631391
     6  H    0.275497
     7  N    0.784834
     8  H    0.046842
     9  C   -0.198431
    10  C    0.225770
    11  C   -0.043915
    12  C    0.104865
    13  C   -0.205893
    14  H    0.186902
    15  H    0.328501
    16  C   -0.499495
    17  H    0.258507
    18  C   -0.302891
    19  H    0.245032
    20  C   -1.111481
    21  H    0.270571
    22  H    0.326356
    23  C   -0.292101
    24  H    0.032012
    25  H    0.396113
    26  H    0.327630
    27  C    1.206154
    28  C   -1.047407
    29  H    0.235569
    30  H    0.162464
    31  H    0.194770
    32  C   -0.198508
    33  H    0.220109
    34  H    0.175843
    35  C   -0.723961
    36  H    0.213711
    37  H    0.180676
    38  H    0.180221
    39  C   -1.152695
    40  C   -0.217637
    41  H    0.165957
    42  H    0.299541
    43  C   -0.502203
    44  H    0.191206
    45  H    0.312788
    46  C   -0.296964
    47  O   -0.019063
    48  N   -0.036397
    49  H    0.152834
    50  H   -0.269273
    51  C   -1.071732
    52  C   -0.374764
    53  H    0.229293
    54  H    0.234769
    55  C    0.533290
    56  C   -0.782184
    57  H    0.254777
    58  C   -0.275742
    59  H    0.238435
    60  C    0.233709
    61  O    0.026399
    62  H    0.309602
    63  C   -0.170852
    64  H   -0.234066
    65  C    0.078991
    66  H    0.236819
    67  C   -1.144296
    68  C   -0.213217
    69  H    0.160704
    70  H    0.272927
    71  C    0.549348
    72  C   -0.561242
    73  H    0.235335
    74  C   -0.367034
    75  H    0.257133
    76  C   -0.078360
    77  H    0.256643
    78  C   -0.370595
    79  H    0.134111
    80  C    0.299055
    81  H    0.057191
    82  C   -0.902431
    83  C   -0.207401
    84  H   -0.056485
    85  H    0.337879
    86  S    0.230617
    87  C   -1.738217
    88  H    0.289672
    89  H    0.290708
    90  C    0.913893
    91  C   -0.663588
    92  C   -0.461943
    93  H    0.320464
    94  C   -0.063743
    95  C   -0.628040
    96  H    0.257874
    97  H    0.208432
    98  H    0.178073
    99  C   -0.383654
   100  H    0.299561
   101  C   -0.311431
   102  N    0.292858
   103  C   -1.397335
   104  C    0.419617
   105  O   -0.141526
   106  N   -0.094430
   107  H    0.462295
   108  C   -0.136129
   109  O   -0.253856
   110  N    0.134843
   111  C    0.099610
   112  N    0.617534
   113  C   -0.366203
   114  C   -1.200637
   115  C   -0.215011
   116  H    0.290041
   117  H    0.156693
   118  C    0.198132
   119  C    0.321271
   120  H   -0.063414
   121  C   -0.292358
   122  H    0.575521
   123  C   -0.628390
   124  O   -0.002904
   125  H    0.316900
   126  C   -0.256144
   127  H    0.229752
   128  C   -0.288089
   129  H    0.230804
   130  C   -0.282011
   131  C   -0.917467
   132  H    0.179251
   133  H    0.266122
   134  C    0.498369
   135  C   -0.533156
   136  H    0.259246
   137  C   -0.047339
   138  H    0.304601
   139  C   -0.550396
   140  O    0.143231
   141  H    0.287147
   142  C   -0.009777
   143  H    0.261981
   144  C   -0.421283
   145  H    0.279786
   146  H    0.207142
   147  H    0.156027
   148  H    0.224096
   149  H    0.202063
   150  H    0.290864
   151  H    0.233823
   152  H    0.143237
   153  H    0.223381
   154  H    0.208550
   155  H    0.196998
   156  H    0.191409
   157  H    0.195316
   158  C   -0.826621
   159  H   -0.488537
   160  H    0.222547
   161  H    0.167747
   162  H    0.282014
   163  H    0.241792
   164  H   -0.319214
   165  H    0.243405
   166  H    0.228068
   167  H    0.185019
   168  H    0.153006
   169  H    0.407300
   170  H    0.218662
   171  H    0.190925
 Sum of Mulliken charges =  -0.00000
 Mulliken charges with hydrogens summed into heavy atoms:
               1
     1  C    0.361485
     2  C    0.621880
     4  C   -0.262282
     7  N    0.831675
     9  C    0.129199
    10  C    0.225770
    11  C    0.142987
    12  C    0.104865
    13  C    0.122607
    16  C   -0.240988
    18  C   -0.057858
    20  C   -0.514554
    23  C    0.136024
    27  C    0.717617
    28  C   -0.454604
    32  C    0.197444
    35  C   -0.149353
    39  C   -0.586603
    40  C    0.247861
    43  C    0.001791
    46  C   -0.296964
    47  O   -0.019063
    48  N   -0.152835
    51  C   -0.488009
    52  C    0.089298
    55  C    0.533290
    56  C   -0.527407
    58  C   -0.037307
    60  C    0.233709
    61  O    0.336001
    63  C   -0.404918
    65  C    0.315811
    67  C   -0.569127
    68  C    0.220415
    71  C    0.549348
    72  C   -0.325907
    74  C   -0.109902
    76  C    0.178283
    78  C   -0.236484
    80  C    0.356247
    82  C   -0.315166
    83  C    0.073994
    86  S    0.230617
    87  C   -1.157836
    90  C    0.913893
    91  C   -0.343124
    92  C   -0.461943
    94  C   -0.063743
    95  C    0.016339
    99  C   -0.084093
   101  C   -0.311431
   102  N    0.292858
   103  C   -1.397335
   104  C    0.419617
   105  O   -0.141526
   106  N    0.367865
   108  C   -0.136129
   109  O   -0.253856
   110  N    0.134843
   111  C    0.099610
   112  N    0.617534
   113  C    0.360547
   114  C   -0.383750
   115  C    0.231723
   118  C    0.198132
   119  C    0.257857
   121  C    0.283163
   123  C   -0.628390
   124  O    0.313996
   126  C   -0.026392
   128  C   -0.057285
   130  C   -0.116028
   131  C   -0.472094
   134  C    0.498369
   135  C   -0.273909
   137  C    0.257262
   139  C   -0.550396
   140  O    0.430378
   142  C    0.252204
   144  C   -0.141497
   158  C   -0.154313
 Electronic spatial extent (au):  <R**2>=          65222.2442
 Charge=              0.0000 electrons
 Dipole moment (field-independent basis, Debye):
    X=              8.2712    Y=             12.0997    Z=             12.5118  Tot=             19.2707
 Quadrupole moment (field-independent basis, Debye-Ang):
   XX=           -489.2467   YY=           -521.6731   ZZ=           -489.7788
   XY=             14.0108   XZ=             11.9817   YZ=             -6.4134
 Traceless Quadrupole moment (field-independent basis, Debye-Ang):
   XX=             10.9861   YY=            -21.4402   ZZ=             10.4541
   XY=             14.0108   XZ=             11.9817   YZ=             -6.4134
 Octapole moment (field-independent basis, Debye-Ang**2):
  XXX=            384.3679  YYY=            450.7160  ZZZ=            141.1884  XYY=             63.5298
  XXY=            -38.1080  XXZ=              7.2872  XZZ=             72.9658  YZZ=            126.6208
  YYZ=            126.4846  XYZ=             82.7377
 Hexadecapole moment (field-independent basis, Debye-Ang**3):
 XXXX=         -46501.0137 YYYY=         -31288.4223 ZZZZ=         -14000.6655 XXXY=            803.0385
 XXXZ=           1676.9431 YYYX=            -62.7339 YYYZ=           -520.4024 ZZZX=           -345.3953
 ZZZY=            264.0290 XXYY=         -12310.5330 XXZZ=          -9847.6482 YYZZ=          -7583.0546
 XXYZ=            133.7640 YYXZ=           -143.7244 ZZXY=            -14.0685
 N-N= 1.658154570829D+04 E-N=-4.207250471307D+04  KE= 3.805029508072D+03
 Leave Link  601 at Mon Apr  4 12:58:42 2022, MaxMem=  4294967296 cpu:             139.0 elap:               2.7
 (Enter /share/apps/g16/l9999.exe)
 1\1\GINC-COMPUTE-0-5\SP\RPBE1PBE\6-311++G(d,p)\C68H90N6O6S1\RVIANELLO\
 04-Apr-2022\0\\#p PBE1PBE/6-311++G(d,p) scrf=(CPCM,solvent=water,Read)
  scf=(XQC,Tight)\\optimisation\\0,1\C,0,-0.861181,-0.496285,-0.08383\C
 ,0,-1.228698,-1.670848,-0.571097\H,0,-1.095592,-2.660431,-0.145047\C,0
 ,-0.23952,-0.085291,1.108409\H,0,-0.811737,0.017807,2.031829\H,0,-1.25
 2109,0.241075,-1.056377\N,0,1.001008,0.324268,1.166903\H,0,1.580311,0.
 219907,0.328522\C,0,1.583617,1.010178,2.314998\C,0,2.981206,0.537705,2
 .644371\C,0,3.481214,-0.759972,2.649476\C,0,3.777138,1.629084,2.996842
 \C,0,4.815919,-0.95602,3.00628\H,0,2.852196,-1.608555,2.384596\H,0,5.2
 28176,-1.959823,3.023186\C,0,5.624717,0.131405,3.350641\H,0,6.6618,-0.
 037661,3.623949\C,0,5.108426,1.430424,3.353475\H,0,5.739062,2.271939,3
 .626984\C,0,2.985541,2.915184,2.929483\H,0,2.675011,3.217045,3.937273\
 H,0,3.555575,3.740856,2.49445\C,0,1.767634,2.524522,2.068418\H,0,2.009
 74,2.676892,1.008855\H,0,0.857472,3.087618,2.295819\H,0,0.902853,0.830
 009,3.156719\C,0,5.50558,-3.517906,0.683752\C,0,5.037111,-4.481582,-0.
 406417\H,0,5.898969,-4.93518,-0.912057\H,0,4.415945,-5.284259,0.001107
 \H,0,4.439188,-3.962494,-1.163201\C,0,6.286034,-4.247177,1.784359\H,0,
 7.128305,-4.782938,1.324345\H,0,6.735473,-3.503391,2.456936\C,0,5.4351
 72,-5.21515,2.604576\H,0,6.007905,-5.641729,3.433109\H,0,4.563075,-4.7
 00807,3.025994\H,0,5.065963,-6.045367,1.995723\C,0,5.436209,-1.960383,
 -3.531171\C,0,4.611894,-0.71073,-3.229817\H,0,4.973384,-0.2313,-2.3103
 13\H,0,4.754489,0.024721,-4.028395\C,0,3.110645,-1.013927,-3.125125\H,
 0,2.527774,-0.087289,-3.075129\H,0,2.763301,-1.561446,-4.003366\C,0,2.
 753027,-1.850863,-1.915321\O,0,2.263041,-2.981143,-2.008342\N,0,2.9908
 04,-1.279423,-0.699067\H,0,3.697667,-0.552087,-0.595403\H,0,2.868306,-
 1.889875,0.106288\C,0,4.817521,6.691753,-2.261691\C,0,3.77745,6.138545
 ,-1.281544\H,0,3.739395,6.774983,-0.389068\H,0,2.782739,6.175145,-1.74
 0429\C,0,4.080108,4.714454,-0.881815\C,0,5.082211,4.423975,0.04933\H,0
 ,5.625318,5.239077,0.522885\C,0,5.406828,3.111566,0.381092\H,0,6.19382
 5,2.89963,1.099693\C,0,4.709751,2.061503,-0.216206\O,0,4.986159,0.7467
 54,0.058582\H,0,5.442322,0.664026,0.915082\C,0,3.70891,2.327946,-1.147
 138\H,0,3.158972,1.507783,-1.602187\C,0,3.403191,3.645585,-1.473473\H,
 0,2.615514,3.841503,-2.196254\C,0,0.770379,5.756081,0.597735\C,0,-0.42
 5289,4.951756,0.075916\H,0,-0.73744,4.232702,0.840178\H,0,-1.273194,5.
 629682,-0.083686\C,0,-0.110121,4.216142,-1.204027\C,0,0.07684,4.90885,
 -2.406385\H,0,-0.036435,5.991178,-2.422263\C,0,0.395512,4.227588,-3.57
 908\H,0,0.529759,4.779648,-4.504804\C,0,0.535059,2.838234,-3.567493\H,
 0,0.774749,2.304501,-4.482348\C,0,0.343449,2.133148,-2.380668\H,0,0.39
 6636,1.046474,-2.380964\C,0,0.022995,2.825893,-1.212078\H,0,-0.155683,
 2.279989,-0.287009\C,0,-6.109529,2.320784,3.201763\C,0,-6.300731,2.672
 75,1.732888\H,0,-5.36972,2.498641,1.186198\H,0,-6.582242,3.724226,1.61
 5659\S,0,-7.585228,1.624038,0.976754\C,0,-7.19776,1.888865,-0.802062\H
 ,0,-7.329238,2.949435,-1.029371\H,0,-7.987292,1.343276,-1.327216\C,0,-
 5.837583,1.39351,-1.216267\C,0,-5.635111,0.01662,-1.353301\C,0,-4.3959
 46,-0.513739,-1.703218\H,0,-6.477868,-0.642713,-1.166564\C,0,-4.763023
 ,2.267586,-1.46884\C,0,-4.914158,3.770109,-1.404548\H,0,-5.599439,4.13
 6024,-2.177489\H,0,-5.306317,4.108351,-0.440183\H,0,-3.946397,4.254593
 ,-1.560993\C,0,-3.52879,1.729036,-1.817547\H,0,-2.681978,2.384176,-2.0
 12622\C,0,-3.296069,0.346605,-1.92744\N,0,-2.03555,-0.094702,-2.230715
 \C,0,-1.815961,-1.493198,-2.016731\C,0,-0.649969,-1.964053,-2.88881\O,
 0,0.206742,-1.213471,-3.307989\N,0,-0.583195,-3.322501,-3.03078\H,0,0.
 293607,-3.715675,-3.359986\C,0,-1.631256,-4.216729,-2.752315\O,0,-1.41
 9018,-5.412538,-2.85845\N,0,-2.863903,-3.701433,-2.424809\C,0,-2.99501
 5,-2.426757,-2.158474\N,0,-4.214314,-1.908012,-1.908974\C,0,-5.399946,
 -2.758502,-1.965763\C,0,-5.299491,-1.524811,2.12041\C,0,-3.801251,-1.5
 14905,2.427506\H,0,-3.603736,-2.122666,3.318283\H,0,-3.254678,-1.99056
 1,1.599732\C,0,-3.232931,-0.131777,2.640368\C,0,-3.301286,0.832026,1.6
 25365\H,0,-3.801766,0.594475,0.688413\C,0,-2.717717,2.085708,1.771867\
 H,0,-2.769559,2.818148,0.969294\C,0,-2.062254,2.409191,2.963565\O,0,-1
 .511447,3.653775,3.068632\H,0,-1.129138,3.764675,3.952532\C,0,-1.99006
 2,1.469451,3.992327\H,0,-1.484769,1.719618,4.922399\C,0,-2.575363,0.21
 3545,3.823187\H,0,-2.505233,-0.513635,4.628391\C,0,-4.212349,-4.643137
 ,0.59107\C,0,-3.286382,-5.014947,1.751727\H,0,-3.596197,-4.481712,2.65
 826\H,0,-3.394313,-6.08487,1.970625\C,0,-1.836312,-4.697953,1.461807\C
 ,0,-1.074072,-3.901496,2.32093\H,0,-1.528472,-3.507749,3.227422\C,0,0.
 255007,-3.590329,2.039252\H,0,0.836011,-2.96414,2.710355\C,0,0.844942,
 -4.07396,0.872786\O,0,2.145327,-3.750347,0.608058\H,0,2.266558,-3.7664
 16,-0.371852\C,0,0.104915,-4.880512,0.004128\H,0,0.554672,-5.248625,-0
 .914636\C,0,-1.219097,-5.184341,0.303569\H,0,-1.778654,-5.794815,-0.39
 9908\H,0,-5.348277,2.972432,3.6421\H,0,-5.770376,1.286229,3.30757\H,0,
 -7.036916,2.445038,3.76919\H,0,-5.903467,-2.76029,-0.99477\H,0,-5.0861
 09,-3.768118,-2.214493\H,0,-6.085035,-2.375424,-2.726807\H,0,1.654668,
 5.115983,0.699886\H,0,0.545856,6.198731,1.573366\H,0,1.028995,6.566349
 ,-0.091561\H,0,4.847595,6.084864,-3.171848\H,0,5.817377,6.676981,-1.81
 6122\H,0,4.584609,7.722778,-2.543305\C,0,6.343245,-2.387395,0.08768\H,
 0,4.607625,-3.078821,1.144089\H,0,7.232359,-2.789505,-0.413991\H,0,6.6
 82778,-1.692013,0.865036\H,0,5.77269,-1.812437,-0.649708\H,0,-3.9695,-
 5.206518,-0.31441\H,0,-4.106205,-3.580987,0.342328\H,0,-5.25979,-4.836
 824,0.844722\H,0,6.503592,-1.727167,-3.581919\H,0,5.135415,-2.397017,-
 4.488899\H,0,5.300564,-2.727535,-2.761519\H,0,-5.524686,-0.927014,1.23
 0442\H,0,-5.872545,-1.10682,2.95437\H,0,-5.651823,-2.546498,1.944446\\
 Version=ES64L-G16RevB.01\State=1-A\HF=-3820.2495628\RMSD=4.172e-09\Dip
 ole=3.2541562,4.7603868,4.9225236\Quadrupole=8.1679186,-15.940283,7.77
 23644,10.416664,8.9081132,-4.7682207\PG=C01 [X(C68H90N6O6S1)]\\@


 THE SOLUTION TO A PROBLEM CHANGES THE PROBLEM.

                                 -- JOHN PEERS
           PAUL DICKSON'S "THE OFFICIAL RULES"
 Job cpu time:       5 days 22 hours  6 minutes 39.9 seconds.
 Elapsed time:       0 days  2 hours 14 minutes 12.4 seconds.
 File lengths (MBytes):  RWF=   3626 Int=      0 D2E=      0 Chk=    336 Scr=      1
 Normal termination of Gaussian 16 at Mon Apr  4 12:58:44 2022.
