 Entering Gaussian System, Link 0=g16
 Input=ras-n-k1-scan1-ts1-irc-f-opt.com
 Output=ras-n-k1-scan1-ts1-irc-f-opt.log
 Initial command:
 /share/apps/g16/l1.exe "/state/partition1/Gau-24591.inp" -scrdir="/state/partition1/"
 Entering Link 1 = /share/apps/g16/l1.exe PID=     24592.
  
 Copyright (c) 1988-2017, Gaussian, Inc.  All Rights Reserved.
  
 This is part of the Gaussian(R) 16 program.  It is based on
 the Gaussian(R) 09 system (copyright 2009, Gaussian, Inc.),
 the Gaussian(R) 03 system (copyright 2003, Gaussian, Inc.),
 the Gaussian(R) 98 system (copyright 1998, Gaussian, Inc.),
 the Gaussian(R) 94 system (copyright 1995, Gaussian, Inc.),
 the Gaussian 92(TM) system (copyright 1992, Gaussian, Inc.),
 the Gaussian 90(TM) system (copyright 1990, Gaussian, Inc.),
 the Gaussian 88(TM) system (copyright 1988, Gaussian, Inc.),
 the Gaussian 86(TM) system (copyright 1986, Carnegie Mellon
 University), and the Gaussian 82(TM) system (copyright 1983,
 Carnegie Mellon University). Gaussian is a federally registered
 trademark of Gaussian, Inc.
  
 This software contains proprietary and confidential information,
 including trade secrets, belonging to Gaussian, Inc.
  
 This software is provided under written license and may be
 used, copied, transmitted, or stored only in accord with that
 written license.
  
 The following legend is applicable only to US Government
 contracts under FAR:
  
                    RESTRICTED RIGHTS LEGEND
  
 Use, reproduction and disclosure by the US Government is
 subject to restrictions as set forth in subparagraphs (a)
 and (c) of the Commercial Computer Software - Restricted
 Rights clause in FAR 52.227-19.
  
 Gaussian, Inc.
 340 Quinnipiac St., Bldg. 40, Wallingford CT 06492
  
  
 ---------------------------------------------------------------
 Warning -- This program may not be used in any manner that
 competes with the business of Gaussian, Inc. or will provide
 assistance to any competitor of Gaussian, Inc.  The licensee
 of this program is prohibited from giving any competitor of
 Gaussian, Inc. access to this program.  By using this program,
 the user acknowledges that Gaussian, Inc. is engaged in the
 business of creating and licensing software in the field of
 computational chemistry and represents and warrants to the
 licensee that it is not a competitor of Gaussian, Inc. and that
 it will not use this program in any manner prohibited above.
 ---------------------------------------------------------------
  

 Cite this work as:
 Gaussian 16, Revision B.01,
 M. J. Frisch, G. W. Trucks, H. B. Schlegel, G. E. Scuseria, 
 M. A. Robb, J. R. Cheeseman, G. Scalmani, V. Barone, 
 G. A. Petersson, H. Nakatsuji, X. Li, M. Caricato, A. V. Marenich, 
 J. Bloino, B. G. Janesko, R. Gomperts, B. Mennucci, H. P. Hratchian, 
 J. V. Ortiz, A. F. Izmaylov, J. L. Sonnenberg, D. Williams-Young, 
 F. Ding, F. Lipparini, F. Egidi, J. Goings, B. Peng, A. Petrone, 
 T. Henderson, D. Ranasinghe, V. G. Zakrzewski, J. Gao, N. Rega, 
 G. Zheng, W. Liang, M. Hada, M. Ehara, K. Toyota, R. Fukuda, 
 J. Hasegawa, M. Ishida, T. Nakajima, Y. Honda, O. Kitao, H. Nakai, 
 T. Vreven, K. Throssell, J. A. Montgomery, Jr., J. E. Peralta, 
 F. Ogliaro, M. J. Bearpark, J. J. Heyd, E. N. Brothers, K. N. Kudin, 
 V. N. Staroverov, T. A. Keith, R. Kobayashi, J. Normand, 
 K. Raghavachari, A. P. Rendell, J. C. Burant, S. S. Iyengar, 
 J. Tomasi, M. Cossi, J. M. Millam, M. Klene, C. Adamo, R. Cammi, 
 J. W. Ochterski, R. L. Martin, K. Morokuma, O. Farkas, 
 J. B. Foresman, and D. J. Fox, Gaussian, Inc., Wallingford CT, 2016.
 
 ******************************************
 Gaussian 16:  ES64L-G16RevB.01 20-Dec-2017
                 4-Apr-2022 
 ******************************************
 %mem=32GB
 %nproc=64
 Will use up to   64 processors via shared memory.
 ----------------------------------------------------------------------
 #p PBE1PBE/6-311++G(d,p) scrf=(CPCM,solvent=water,Read) scf=(XQC,Tight
 )
 ----------------------------------------------------------------------
 1/38=1,40=2,172=1/1;
 2/12=2,17=6,18=5,40=1/2;
 3/5=4,6=6,7=1111,11=2,25=1,30=1,70=2103,72=1,74=-13/1,2,3;
 4//1;
 5/5=2,8=3,13=1,32=2,38=5,53=1/2,8;
 6/7=2,8=2,9=2,10=2,28=1/1;
 99/5=1,9=1/99;
 Leave Link    1 at Mon Apr  4 10:43:42 2022, MaxMem=  4294967296 cpu:               6.7 elap:               0.1
 (Enter /share/apps/g16/l101.exe)
 ------------
 optimisation
 ------------
 Symbolic Z-matrix:
 Charge =  0 Multiplicity = 1
 6                    0    -0.67507  -0.65957   0.30238 
 6                    0    -1.08367  -1.6922   -0.38369 
 1                    0    -1.12133  -2.69803   0.04075 
 6                    0    -0.2741    0.41075   0.95361 
 1                    0    -1.00459   0.99403   1.51174 
 1                    0    -1.31037   0.45913  -2.18921 
 7                    0     1.01601   0.93109   0.97896 
 1                    0     1.70978   0.37063   0.49131 
 6                    0     1.48216   1.5535    2.21589 
 6                    0     2.87637   1.11363   2.61058 
 6                    0     3.42105  -0.16565   2.56899 
 6                    0     3.62259   2.20068   3.07152 
 6                    0     4.74524  -0.34515   2.973 
 1                    0     2.8264   -1.01502   2.23521 
 1                    0     5.185    -1.33713   2.96352 
 6                    0     5.51013   0.74489   3.39696 
 1                    0     6.54352   0.59226   3.69376 
 6                    0     4.95003   2.02504   3.45517 
 1                    0     5.54319   2.86863   3.79872 
 6                    0     2.77662   3.45255   3.08715 
 1                    0     2.41139   3.63336   4.1063 
 1                    0     3.32289   4.34554   2.77109 
 6                    0     1.61576   3.09237   2.13961 
 1                    0     1.88117   3.35364   1.1078 
 1                    0     0.68096   3.59979   2.39488 
 1                    0     0.78366   1.28184   3.02119 
 6                    0     6.0992   -2.80808   0.81706 
 6                    0     5.89774  -3.82912  -0.302 
 1                    0     6.86467  -4.1471   -0.7123 
 1                    0     5.36563  -4.71701   0.05157 
 1                    0     5.3062   -3.40447  -1.12033 
 6                    0     6.85585  -3.40631   2.00939 
 1                    0     7.83035  -3.7768    1.66096 
 1                    0     7.07765  -2.60294   2.72616 
 6                    0     6.09814  -4.52211   2.72674 
 1                    0     6.62771  -4.84369   3.62826 
 1                    0     5.09937  -4.1816    3.02507 
 1                    0     5.9702   -5.40039   2.08761 
 6                    0     6.1521   -1.2288   -3.40716 
 6                    0     5.0993   -0.14261  -3.19891 
 1                    0     5.30007   0.40752  -2.26989 
 1                    0     5.16613   0.59424  -4.00609 
 6                    0     3.6735   -0.70792  -3.1842 
 1                    0     2.93213   0.09661  -3.19454 
 1                    0     3.49569  -1.32186  -4.07144 
 6                    0     3.37995  -1.58132  -1.9828 
 8                    0     3.01669  -2.76429  -2.10452 
 7                    0     3.53095  -1.01583  -0.76926 
 1                    0     3.99604  -0.12207  -0.62574 
 1                    0     3.38211  -1.60258   0.04707 
 6                    0     3.40007   7.08587  -2.55641 
 6                    0     2.54032   6.40919  -1.48338 
 1                    0     2.42783   7.0815   -0.6247 
 1                    0     1.53303   6.22927  -1.87776 
 6                    0     3.13722   5.099    -1.02765 
 6                    0     4.10335   5.05296  -0.01886 
 1                    0     4.40553   5.97403   0.47491 
 6                    0     4.69515   3.85232   0.36515 
 1                    0     5.45041   3.83194   1.14658 
 6                    0     4.29928   2.66482  -0.24783 
 8                    0     4.84669   1.45197   0.08389 
 1                    0     5.21662   1.47747   0.98537 
 6                    0     3.33488   2.68546  -1.25357 
 1                    0     3.01089   1.75214  -1.70683 
 6                    0     2.77418   3.89743  -1.64232 
 1                    0     2.02148   3.9068   -2.4261 
 6                    0    -0.35463   5.49822   0.56808 
 6                    0    -1.29497   4.32471   0.27798 
 1                    0    -1.02235   3.46757   0.90532 
 1                    0    -2.31698   4.6043    0.55955 
 6                    0    -1.25832   3.91303  -1.17257 
 6                    0    -2.04431   4.57573  -2.1214 
 1                    0    -2.69873   5.38313  -1.79807 
 6                    0    -2.0104    4.20716  -3.46545 
 1                    0    -2.63843   4.72492  -4.18424 
 6                    0    -1.1759    3.17188  -3.88359 
 1                    0    -1.15121   2.87766  -4.92814 
 6                    0    -0.37175   2.5167   -2.95115 
 1                    0     0.28119   1.70512  -3.26573 
 6                    0    -0.41667   2.88175  -1.60369 
 1                    0     0.21353   2.36792  -0.87728 
 6                    0    -6.62104   1.31618   3.3212 
 6                    0    -6.87197   1.58515   1.8439 
 1                    0    -5.92289   1.77394   1.33683 
 1                    0    -7.52022   2.45621   1.70477 
 16                   0    -7.64913   0.14053   1.0497 
 6                    0    -7.366     0.57272  -0.71147 
 1                    0    -7.73296   1.58804  -0.88051 
 1                    0    -8.01816  -0.10555  -1.26891 
 6                    0    -5.93359   0.40791  -1.15347 
 6                    0    -5.4462   -0.89227  -1.32602 
 6                    0    -4.13499  -1.13203  -1.72101 
 1                    0    -6.12133  -1.72435  -1.15134 
 6                    0    -5.08278   1.49923  -1.39489 
 6                    0    -5.55744   2.93166  -1.31623 
 1                    0    -6.30272   3.14404  -2.09094 
 1                    0    -6.01795   3.16961  -0.35238 
 1                    0    -4.71697   3.61497  -1.46571 
 6                    0    -3.75344   1.25063  -1.74719 
 1                    0    -3.07614   2.08315  -1.92193 
 6                    0    -3.2634   -0.04375  -1.89763 
 7                    0    -1.96681  -0.30772  -2.31518 
 6                    0    -1.41644  -1.56922  -1.88972 
 6                    0    -0.06566  -1.73027  -2.57242 
 8                    0     0.67745  -0.77596  -2.71368 
 7                    0     0.25793  -3.00822  -2.89942 
 1                    0     1.23853  -3.19815  -3.10968 
 6                    0    -0.631    -4.10095  -2.88777 
 8                    0    -0.19302  -5.20546  -3.14332 
 7                    0    -1.96754  -3.87386  -2.62763 
 6                    0    -2.36414  -2.69448  -2.24594 
 7                    0    -3.67479  -2.43727  -2.04323 
 6                    0    -4.67156  -3.48294  -2.2663 
 6                    0    -4.58639  -2.4425    2.972 
 6                    0    -3.42019  -1.85384   2.17413 
 1                    0    -2.51615  -2.45694   2.33084 
 1                    0    -3.64557  -1.90824   1.10171 
 6                    0    -3.13792  -0.41279   2.51999 
 6                    0    -3.58057   0.60804   1.67652 
 1                    0    -4.12436   0.34268   0.77368 
 6                    0    -3.32874   1.94852   1.95322 
 1                    0    -3.66291   2.73227   1.2779 
 6                    0    -2.61631   2.29231   3.10328 
 8                    0    -2.37089   3.61588   3.3269 
 1                    0    -1.87977   3.71542   4.15632 
 6                    0    -2.1736    1.28736   3.96829 
 1                    0    -1.61652   1.55189   4.86419 
 6                    0    -2.43607  -0.04886   3.67224 
 1                    0    -2.07095  -0.82152   4.34535 
 6                    0    -3.41951  -5.04406   0.4805 
 6                    0    -2.43133  -5.48998   1.56193 
 1                    0    -2.76322  -5.12189   2.54027 
 1                    0    -2.43536  -6.58552   1.62378 
 6                    0    -1.02808  -4.99357   1.29721 
 6                    0    -0.3363   -4.22138   2.23482 
 1                    0    -0.80569  -3.99818   3.19056 
 6                    0     0.93806  -3.72293   1.9735 
 1                    0     1.46423  -3.11957   2.70704 
 6                    0     1.54757  -3.99819   0.75108 
 8                    0     2.79683  -3.50642   0.5105 
 1                    0     2.95109  -3.51074  -0.4659 
 6                    0     0.8843   -4.78596  -0.19221 
 1                    0     1.36149  -5.01309  -1.14194 
 6                    0    -0.38895  -5.27202   0.08349 
 1                    0    -0.8895   -5.86947  -0.67484 
 1                    0    -6.19072   2.20575   3.79086 
 1                    0    -5.91364   0.49086   3.44744 
 1                    0    -7.54849   1.06706   3.84573 
 1                    0    -5.15578  -3.74786  -1.32261 
 1                    0    -4.16659  -4.35495  -2.67207 
 1                    0    -5.42229  -3.11747  -2.97093 
 1                    0     0.68017   5.23257   0.32588 
 1                    0    -0.40052   5.78077   1.62484 
 1                    0    -0.6286    6.37176  -0.03341 
 1                    0     3.50165   6.43751  -3.43228 
 1                    0     4.40458   7.29122  -2.17301 
 1                    0     2.95598   8.03199  -2.87909 
 6                    0     6.81586  -1.56098   0.30021 
 1                    0     5.10066  -2.51463   1.17152 
 1                    0     7.80804  -1.82139  -0.0894 
 1                    0     6.9514   -0.82161   1.0987 
 1                    0     6.25195  -1.08157  -0.50689 
 1                    0    -3.14109  -5.44109  -0.5009 
 1                    0    -3.42699  -3.95104   0.39785 
 1                    0    -4.43581  -5.38117   0.7094 
 1                    0     7.16229  -0.81007  -3.38861 
 1                    0     6.00575  -1.72594  -4.37153 
 1                    0     6.0965   -1.99615  -2.62768 
 1                    0    -5.5087   -1.88847   2.76693 
 1                    0    -4.39056  -2.39056   4.04822 
 1                    0    -4.7531   -3.49177   2.70551 
 
 ITRead=  0  0  0  0  0  0  0  0  0  0  0  0  0  0  0  0  0  0  0  0
 ITRead=  0  0  0  0  0  0  0  0  0  0  0  0  0  0  0  0  0  0  0  0
 ITRead=  0  0  0  0  0  0  0  0  0  0  0  0  0  0  0  0  0  0  0  0
 ITRead=  0  0  0  0  0  0  0  0  0  0  0  0  0  0  0  0  0  0  0  0
 ITRead=  0  0  0  0  0  0  0  0  0  0  0  0  0  0  0  0  0  0  0  0
 ITRead=  0  0  0  0  0  0  0  0  0  0  0  0  0  0  0  0  0  0  0  0
 ITRead=  0  0  0  0  0  0  0  0  0  0  0  0  0  0  0  0  0  0  0  0
 ITRead=  0  0  0  0  0  0  0  0  0  0  0  0  0  0  0  0  0  0  0  0
 ITRead=  0  0  0  0  0  0  0  0  0  0  0
 MicOpt= -1 -1 -1 -1 -1 -1 -1 -1 -1 -1 -1 -1 -1 -1 -1 -1 -1 -1 -1 -1
 MicOpt= -1 -1 -1 -1 -1 -1 -1 -1 -1 -1 -1 -1 -1 -1 -1 -1 -1 -1 -1 -1
 MicOpt= -1 -1 -1 -1 -1 -1 -1 -1 -1 -1 -1 -1 -1 -1 -1 -1 -1 -1 -1 -1
 MicOpt= -1 -1 -1 -1 -1 -1 -1 -1 -1 -1 -1 -1 -1 -1 -1 -1 -1 -1 -1 -1
 MicOpt= -1 -1 -1 -1 -1 -1 -1 -1 -1 -1 -1 -1 -1 -1 -1 -1 -1 -1 -1 -1
 MicOpt= -1 -1 -1 -1 -1 -1 -1 -1 -1 -1 -1 -1 -1 -1 -1 -1 -1 -1 -1 -1
 MicOpt= -1 -1 -1 -1 -1 -1 -1 -1 -1 -1 -1 -1 -1 -1 -1 -1 -1 -1 -1 -1
 MicOpt= -1 -1 -1 -1 -1 -1 -1 -1 -1 -1 -1 -1 -1 -1 -1 -1 -1 -1 -1 -1
 MicOpt= -1 -1 -1 -1 -1 -1 -1 -1 -1 -1 -1
 NAtoms=    171 NQM=      171 NQMF=       0 NMMI=      0 NMMIF=      0
                NMic=       0 NMicF=      0.
                    Isotopes and Nuclear Properties:
 (Nuclear quadrupole moments (NQMom) in fm**2, nuclear magnetic moments (NMagM)
  in nuclear magnetons)

  Atom         1           2           3           4           5           6           7           8           9          10
 IAtWgt=          12          12           1          12           1           1          14           1          12          12
 AtmWgt=  12.0000000  12.0000000   1.0078250  12.0000000   1.0078250   1.0078250  14.0030740   1.0078250  12.0000000  12.0000000
 NucSpn=           0           0           1           0           1           1           2           1           0           0
 AtZEff=  -0.0000000  -0.0000000  -0.0000000  -0.0000000  -0.0000000  -0.0000000  -0.0000000  -0.0000000  -0.0000000  -0.0000000
 NQMom=    0.0000000   0.0000000   0.0000000   0.0000000   0.0000000   0.0000000   2.0440000   0.0000000   0.0000000   0.0000000
 NMagM=    0.0000000   0.0000000   2.7928460   0.0000000   2.7928460   2.7928460   0.4037610   2.7928460   0.0000000   0.0000000
 AtZNuc=   6.0000000   6.0000000   1.0000000   6.0000000   1.0000000   1.0000000   7.0000000   1.0000000   6.0000000   6.0000000

  Atom        11          12          13          14          15          16          17          18          19          20
 IAtWgt=          12          12          12           1           1          12           1          12           1          12
 AtmWgt=  12.0000000  12.0000000  12.0000000   1.0078250   1.0078250  12.0000000   1.0078250  12.0000000   1.0078250  12.0000000
 NucSpn=           0           0           0           1           1           0           1           0           1           0
 AtZEff=  -0.0000000  -0.0000000  -0.0000000  -0.0000000  -0.0000000  -0.0000000  -0.0000000  -0.0000000  -0.0000000  -0.0000000
 NQMom=    0.0000000   0.0000000   0.0000000   0.0000000   0.0000000   0.0000000   0.0000000   0.0000000   0.0000000   0.0000000
 NMagM=    0.0000000   0.0000000   0.0000000   2.7928460   2.7928460   0.0000000   2.7928460   0.0000000   2.7928460   0.0000000
 AtZNuc=   6.0000000   6.0000000   6.0000000   1.0000000   1.0000000   6.0000000   1.0000000   6.0000000   1.0000000   6.0000000

  Atom        21          22          23          24          25          26          27          28          29          30
 IAtWgt=           1           1          12           1           1           1          12          12           1           1
 AtmWgt=   1.0078250   1.0078250  12.0000000   1.0078250   1.0078250   1.0078250  12.0000000  12.0000000   1.0078250   1.0078250
 NucSpn=           1           1           0           1           1           1           0           0           1           1
 AtZEff=  -0.0000000  -0.0000000  -0.0000000  -0.0000000  -0.0000000  -0.0000000  -0.0000000  -0.0000000  -0.0000000  -0.0000000
 NQMom=    0.0000000   0.0000000   0.0000000   0.0000000   0.0000000   0.0000000   0.0000000   0.0000000   0.0000000   0.0000000
 NMagM=    2.7928460   2.7928460   0.0000000   2.7928460   2.7928460   2.7928460   0.0000000   0.0000000   2.7928460   2.7928460
 AtZNuc=   1.0000000   1.0000000   6.0000000   1.0000000   1.0000000   1.0000000   6.0000000   6.0000000   1.0000000   1.0000000

  Atom        31          32          33          34          35          36          37          38          39          40
 IAtWgt=           1          12           1           1          12           1           1           1          12          12
 AtmWgt=   1.0078250  12.0000000   1.0078250   1.0078250  12.0000000   1.0078250   1.0078250   1.0078250  12.0000000  12.0000000
 NucSpn=           1           0           1           1           0           1           1           1           0           0
 AtZEff=  -0.0000000  -0.0000000  -0.0000000  -0.0000000  -0.0000000  -0.0000000  -0.0000000  -0.0000000  -0.0000000  -0.0000000
 NQMom=    0.0000000   0.0000000   0.0000000   0.0000000   0.0000000   0.0000000   0.0000000   0.0000000   0.0000000   0.0000000
 NMagM=    2.7928460   0.0000000   2.7928460   2.7928460   0.0000000   2.7928460   2.7928460   2.7928460   0.0000000   0.0000000
 AtZNuc=   1.0000000   6.0000000   1.0000000   1.0000000   6.0000000   1.0000000   1.0000000   1.0000000   6.0000000   6.0000000

  Atom        41          42          43          44          45          46          47          48          49          50
 IAtWgt=           1           1          12           1           1          12          16          14           1           1
 AtmWgt=   1.0078250   1.0078250  12.0000000   1.0078250   1.0078250  12.0000000  15.9949146  14.0030740   1.0078250   1.0078250
 NucSpn=           1           1           0           1           1           0           0           2           1           1
 AtZEff=  -0.0000000  -0.0000000  -0.0000000  -0.0000000  -0.0000000  -0.0000000  -0.0000000  -0.0000000  -0.0000000  -0.0000000
 NQMom=    0.0000000   0.0000000   0.0000000   0.0000000   0.0000000   0.0000000   0.0000000   2.0440000   0.0000000   0.0000000
 NMagM=    2.7928460   2.7928460   0.0000000   2.7928460   2.7928460   0.0000000   0.0000000   0.4037610   2.7928460   2.7928460
 AtZNuc=   1.0000000   1.0000000   6.0000000   1.0000000   1.0000000   6.0000000   8.0000000   7.0000000   1.0000000   1.0000000

  Atom        51          52          53          54          55          56          57          58          59          60
 IAtWgt=          12          12           1           1          12          12           1          12           1          12
 AtmWgt=  12.0000000  12.0000000   1.0078250   1.0078250  12.0000000  12.0000000   1.0078250  12.0000000   1.0078250  12.0000000
 NucSpn=           0           0           1           1           0           0           1           0           1           0
 AtZEff=  -0.0000000  -0.0000000  -0.0000000  -0.0000000  -0.0000000  -0.0000000  -0.0000000  -0.0000000  -0.0000000  -0.0000000
 NQMom=    0.0000000   0.0000000   0.0000000   0.0000000   0.0000000   0.0000000   0.0000000   0.0000000   0.0000000   0.0000000
 NMagM=    0.0000000   0.0000000   2.7928460   2.7928460   0.0000000   0.0000000   2.7928460   0.0000000   2.7928460   0.0000000
 AtZNuc=   6.0000000   6.0000000   1.0000000   1.0000000   6.0000000   6.0000000   1.0000000   6.0000000   1.0000000   6.0000000

  Atom        61          62          63          64          65          66          67          68          69          70
 IAtWgt=          16           1          12           1          12           1          12          12           1           1
 AtmWgt=  15.9949146   1.0078250  12.0000000   1.0078250  12.0000000   1.0078250  12.0000000  12.0000000   1.0078250   1.0078250
 NucSpn=           0           1           0           1           0           1           0           0           1           1
 AtZEff=  -0.0000000  -0.0000000  -0.0000000  -0.0000000  -0.0000000  -0.0000000  -0.0000000  -0.0000000  -0.0000000  -0.0000000
 NQMom=    0.0000000   0.0000000   0.0000000   0.0000000   0.0000000   0.0000000   0.0000000   0.0000000   0.0000000   0.0000000
 NMagM=    0.0000000   2.7928460   0.0000000   2.7928460   0.0000000   2.7928460   0.0000000   0.0000000   2.7928460   2.7928460
 AtZNuc=   8.0000000   1.0000000   6.0000000   1.0000000   6.0000000   1.0000000   6.0000000   6.0000000   1.0000000   1.0000000

  Atom        71          72          73          74          75          76          77          78          79          80
 IAtWgt=          12          12           1          12           1          12           1          12           1          12
 AtmWgt=  12.0000000  12.0000000   1.0078250  12.0000000   1.0078250  12.0000000   1.0078250  12.0000000   1.0078250  12.0000000
 NucSpn=           0           0           1           0           1           0           1           0           1           0
 AtZEff=  -0.0000000  -0.0000000  -0.0000000  -0.0000000  -0.0000000  -0.0000000  -0.0000000  -0.0000000  -0.0000000  -0.0000000
 NQMom=    0.0000000   0.0000000   0.0000000   0.0000000   0.0000000   0.0000000   0.0000000   0.0000000   0.0000000   0.0000000
 NMagM=    0.0000000   0.0000000   2.7928460   0.0000000   2.7928460   0.0000000   2.7928460   0.0000000   2.7928460   0.0000000
 AtZNuc=   6.0000000   6.0000000   1.0000000   6.0000000   1.0000000   6.0000000   1.0000000   6.0000000   1.0000000   6.0000000

  Atom        81          82          83          84          85          86          87          88          89          90
 IAtWgt=           1          12          12           1           1          32          12           1           1          12
 AtmWgt=   1.0078250  12.0000000  12.0000000   1.0078250   1.0078250  31.9720718  12.0000000   1.0078250   1.0078250  12.0000000
 NucSpn=           1           0           0           1           1           0           0           1           1           0
 AtZEff=  -0.0000000  -0.0000000  -0.0000000  -0.0000000  -0.0000000  -0.0000000  -0.0000000  -0.0000000  -0.0000000  -0.0000000
 NQMom=    0.0000000   0.0000000   0.0000000   0.0000000   0.0000000   0.0000000   0.0000000   0.0000000   0.0000000   0.0000000
 NMagM=    2.7928460   0.0000000   0.0000000   2.7928460   2.7928460   0.0000000   0.0000000   2.7928460   2.7928460   0.0000000
 AtZNuc=   1.0000000   6.0000000   6.0000000   1.0000000   1.0000000  16.0000000   6.0000000   1.0000000   1.0000000   6.0000000

  Atom        91          92          93          94          95          96          97          98          99         100
 IAtWgt=          12          12           1          12          12           1           1           1          12           1
 AtmWgt=  12.0000000  12.0000000   1.0078250  12.0000000  12.0000000   1.0078250   1.0078250   1.0078250  12.0000000   1.0078250
 NucSpn=           0           0           1           0           0           1           1           1           0           1
 AtZEff=  -0.0000000  -0.0000000  -0.0000000  -0.0000000  -0.0000000  -0.0000000  -0.0000000  -0.0000000  -0.0000000  -0.0000000
 NQMom=    0.0000000   0.0000000   0.0000000   0.0000000   0.0000000   0.0000000   0.0000000   0.0000000   0.0000000   0.0000000
 NMagM=    0.0000000   0.0000000   2.7928460   0.0000000   0.0000000   2.7928460   2.7928460   2.7928460   0.0000000   2.7928460
 AtZNuc=   6.0000000   6.0000000   1.0000000   6.0000000   6.0000000   1.0000000   1.0000000   1.0000000   6.0000000   1.0000000

  Atom       101         102         103         104         105         106         107         108         109         110
 IAtWgt=          12          14          12          12          16          14           1          12          16          14
 AtmWgt=  12.0000000  14.0030740  12.0000000  12.0000000  15.9949146  14.0030740   1.0078250  12.0000000  15.9949146  14.0030740
 NucSpn=           0           2           0           0           0           2           1           0           0           2
 AtZEff=  -0.0000000  -0.0000000  -0.0000000  -0.0000000  -0.0000000  -0.0000000  -0.0000000  -0.0000000  -0.0000000  -0.0000000
 NQMom=    0.0000000   2.0440000   0.0000000   0.0000000   0.0000000   2.0440000   0.0000000   0.0000000   0.0000000   2.0440000
 NMagM=    0.0000000   0.4037610   0.0000000   0.0000000   0.0000000   0.4037610   2.7928460   0.0000000   0.0000000   0.4037610
 AtZNuc=   6.0000000   7.0000000   6.0000000   6.0000000   8.0000000   7.0000000   1.0000000   6.0000000   8.0000000   7.0000000

  Atom       111         112         113         114         115         116         117         118         119         120
 IAtWgt=          12          14          12          12          12           1           1          12          12           1
 AtmWgt=  12.0000000  14.0030740  12.0000000  12.0000000  12.0000000   1.0078250   1.0078250  12.0000000  12.0000000   1.0078250
 NucSpn=           0           2           0           0           0           1           1           0           0           1
 AtZEff=  -0.0000000  -0.0000000  -0.0000000  -0.0000000  -0.0000000  -0.0000000  -0.0000000  -0.0000000  -0.0000000  -0.0000000
 NQMom=    0.0000000   2.0440000   0.0000000   0.0000000   0.0000000   0.0000000   0.0000000   0.0000000   0.0000000   0.0000000
 NMagM=    0.0000000   0.4037610   0.0000000   0.0000000   0.0000000   2.7928460   2.7928460   0.0000000   0.0000000   2.7928460
 AtZNuc=   6.0000000   7.0000000   6.0000000   6.0000000   6.0000000   1.0000000   1.0000000   6.0000000   6.0000000   1.0000000

  Atom       121         122         123         124         125         126         127         128         129         130
 IAtWgt=          12           1          12          16           1          12           1          12           1          12
 AtmWgt=  12.0000000   1.0078250  12.0000000  15.9949146   1.0078250  12.0000000   1.0078250  12.0000000   1.0078250  12.0000000
 NucSpn=           0           1           0           0           1           0           1           0           1           0
 AtZEff=  -0.0000000  -0.0000000  -0.0000000  -0.0000000  -0.0000000  -0.0000000  -0.0000000  -0.0000000  -0.0000000  -0.0000000
 NQMom=    0.0000000   0.0000000   0.0000000   0.0000000   0.0000000   0.0000000   0.0000000   0.0000000   0.0000000   0.0000000
 NMagM=    0.0000000   2.7928460   0.0000000   0.0000000   2.7928460   0.0000000   2.7928460   0.0000000   2.7928460   0.0000000
 AtZNuc=   6.0000000   1.0000000   6.0000000   8.0000000   1.0000000   6.0000000   1.0000000   6.0000000   1.0000000   6.0000000

  Atom       131         132         133         134         135         136         137         138         139         140
 IAtWgt=          12           1           1          12          12           1          12           1          12          16
 AtmWgt=  12.0000000   1.0078250   1.0078250  12.0000000  12.0000000   1.0078250  12.0000000   1.0078250  12.0000000  15.9949146
 NucSpn=           0           1           1           0           0           1           0           1           0           0
 AtZEff=  -0.0000000  -0.0000000  -0.0000000  -0.0000000  -0.0000000  -0.0000000  -0.0000000  -0.0000000  -0.0000000  -0.0000000
 NQMom=    0.0000000   0.0000000   0.0000000   0.0000000   0.0000000   0.0000000   0.0000000   0.0000000   0.0000000   0.0000000
 NMagM=    0.0000000   2.7928460   2.7928460   0.0000000   0.0000000   2.7928460   0.0000000   2.7928460   0.0000000   0.0000000
 AtZNuc=   6.0000000   1.0000000   1.0000000   6.0000000   6.0000000   1.0000000   6.0000000   1.0000000   6.0000000   8.0000000

  Atom       141         142         143         144         145         146         147         148         149         150
 IAtWgt=           1          12           1          12           1           1           1           1           1           1
 AtmWgt=   1.0078250  12.0000000   1.0078250  12.0000000   1.0078250   1.0078250   1.0078250   1.0078250   1.0078250   1.0078250
 NucSpn=           1           0           1           0           1           1           1           1           1           1
 AtZEff=  -0.0000000  -0.0000000  -0.0000000  -0.0000000  -0.0000000  -0.0000000  -0.0000000  -0.0000000  -0.0000000  -0.0000000
 NQMom=    0.0000000   0.0000000   0.0000000   0.0000000   0.0000000   0.0000000   0.0000000   0.0000000   0.0000000   0.0000000
 NMagM=    2.7928460   0.0000000   2.7928460   0.0000000   2.7928460   2.7928460   2.7928460   2.7928460   2.7928460   2.7928460
 AtZNuc=   1.0000000   6.0000000   1.0000000   6.0000000   1.0000000   1.0000000   1.0000000   1.0000000   1.0000000   1.0000000

  Atom       151         152         153         154         155         156         157         158         159         160
 IAtWgt=           1           1           1           1           1           1           1          12           1           1
 AtmWgt=   1.0078250   1.0078250   1.0078250   1.0078250   1.0078250   1.0078250   1.0078250  12.0000000   1.0078250   1.0078250
 NucSpn=           1           1           1           1           1           1           1           0           1           1
 AtZEff=  -0.0000000  -0.0000000  -0.0000000  -0.0000000  -0.0000000  -0.0000000  -0.0000000  -0.0000000  -0.0000000  -0.0000000
 NQMom=    0.0000000   0.0000000   0.0000000   0.0000000   0.0000000   0.0000000   0.0000000   0.0000000   0.0000000   0.0000000
 NMagM=    2.7928460   2.7928460   2.7928460   2.7928460   2.7928460   2.7928460   2.7928460   0.0000000   2.7928460   2.7928460
 AtZNuc=   1.0000000   1.0000000   1.0000000   1.0000000   1.0000000   1.0000000   1.0000000   6.0000000   1.0000000   1.0000000

  Atom       161         162         163         164         165         166         167         168         169         170
 IAtWgt=           1           1           1           1           1           1           1           1           1           1
 AtmWgt=   1.0078250   1.0078250   1.0078250   1.0078250   1.0078250   1.0078250   1.0078250   1.0078250   1.0078250   1.0078250
 NucSpn=           1           1           1           1           1           1           1           1           1           1
 AtZEff=  -0.0000000  -0.0000000  -0.0000000  -0.0000000  -0.0000000  -0.0000000  -0.0000000  -0.0000000  -0.0000000  -0.0000000
 NQMom=    0.0000000   0.0000000   0.0000000   0.0000000   0.0000000   0.0000000   0.0000000   0.0000000   0.0000000   0.0000000
 NMagM=    2.7928460   2.7928460   2.7928460   2.7928460   2.7928460   2.7928460   2.7928460   2.7928460   2.7928460   2.7928460
 AtZNuc=   1.0000000   1.0000000   1.0000000   1.0000000   1.0000000   1.0000000   1.0000000   1.0000000   1.0000000   1.0000000

  Atom       171
 IAtWgt=           1
 AtmWgt=   1.0078250
 NucSpn=           1
 AtZEff=  -0.0000000
 NQMom=    0.0000000
 NMagM=    2.7928460
 AtZNuc=   1.0000000
 Leave Link  101 at Mon Apr  4 10:43:42 2022, MaxMem=  4294967296 cpu:              11.6 elap:               0.2
 (Enter /share/apps/g16/l202.exe)
 Stoichiometry    C68H90N6O6S
 Framework group  C1[X(C68H90N6O6S)]
 Deg. of freedom   507
 Full point group                 C1      NOp   1
 Largest Abelian subgroup         C1      NOp   1
 Largest concise Abelian subgroup C1      NOp   1
                         Standard orientation:                         
 ---------------------------------------------------------------------
 Center     Atomic      Atomic             Coordinates (Angstroms)
 Number     Number       Type             X           Y           Z
 ---------------------------------------------------------------------
      1          6           0       -0.675072   -0.659571    0.302381
      2          6           0       -1.083674   -1.692198   -0.383693
      3          1           0       -1.121332   -2.698032    0.040754
      4          6           0       -0.274098    0.410749    0.953611
      5          1           0       -1.004594    0.994034    1.511739
      6          1           0       -1.310368    0.459130   -2.189211
      7          7           0        1.016005    0.931090    0.978960
      8          1           0        1.709779    0.370634    0.491305
      9          6           0        1.482164    1.553503    2.215887
     10          6           0        2.876373    1.113634    2.610576
     11          6           0        3.421050   -0.165645    2.568985
     12          6           0        3.622587    2.200682    3.071517
     13          6           0        4.745242   -0.345153    2.973001
     14          1           0        2.826400   -1.015018    2.235205
     15          1           0        5.185000   -1.337131    2.963522
     16          6           0        5.510133    0.744893    3.396956
     17          1           0        6.543521    0.592260    3.693755
     18          6           0        4.950025    2.025040    3.455166
     19          1           0        5.543193    2.868633    3.798715
     20          6           0        2.776619    3.452551    3.087152
     21          1           0        2.411387    3.633360    4.106297
     22          1           0        3.322888    4.345539    2.771091
     23          6           0        1.615755    3.092371    2.139608
     24          1           0        1.881169    3.353639    1.107798
     25          1           0        0.680964    3.599785    2.394882
     26          1           0        0.783656    1.281837    3.021188
     27          6           0        6.099196   -2.808080    0.817061
     28          6           0        5.897743   -3.829121   -0.301995
     29          1           0        6.864671   -4.147102   -0.712299
     30          1           0        5.365632   -4.717007    0.051566
     31          1           0        5.306202   -3.404466   -1.120330
     32          6           0        6.855851   -3.406311    2.009389
     33          1           0        7.830345   -3.776799    1.660956
     34          1           0        7.077652   -2.602944    2.726160
     35          6           0        6.098144   -4.522111    2.726744
     36          1           0        6.627713   -4.843692    3.628260
     37          1           0        5.099369   -4.181597    3.025073
     38          1           0        5.970195   -5.400392    2.087614
     39          6           0        6.152099   -1.228800   -3.407159
     40          6           0        5.099300   -0.142608   -3.198914
     41          1           0        5.300068    0.407515   -2.269892
     42          1           0        5.166131    0.594243   -4.006094
     43          6           0        3.673504   -0.707917   -3.184203
     44          1           0        2.932134    0.096605   -3.194539
     45          1           0        3.495694   -1.321856   -4.071438
     46          6           0        3.379945   -1.581319   -1.982799
     47          8           0        3.016688   -2.764289   -2.104516
     48          7           0        3.530952   -1.015828   -0.769258
     49          1           0        3.996038   -0.122073   -0.625738
     50          1           0        3.382107   -1.602577    0.047070
     51          6           0        3.400071    7.085870   -2.556411
     52          6           0        2.540318    6.409190   -1.483377
     53          1           0        2.427834    7.081497   -0.624699
     54          1           0        1.533034    6.229274   -1.877758
     55          6           0        3.137222    5.098997   -1.027646
     56          6           0        4.103353    5.052963   -0.018858
     57          1           0        4.405530    5.974029    0.474905
     58          6           0        4.695148    3.852316    0.365148
     59          1           0        5.450407    3.831938    1.146585
     60          6           0        4.299282    2.664820   -0.247826
     61          8           0        4.846686    1.451967    0.083893
     62          1           0        5.216616    1.477469    0.985372
     63          6           0        3.334875    2.685460   -1.253570
     64          1           0        3.010890    1.752142   -1.706825
     65          6           0        2.774179    3.897430   -1.642320
     66          1           0        2.021476    3.906795   -2.426098
     67          6           0       -0.354632    5.498215    0.568076
     68          6           0       -1.294972    4.324712    0.277979
     69          1           0       -1.022348    3.467572    0.905323
     70          1           0       -2.316983    4.604303    0.559550
     71          6           0       -1.258324    3.913030   -1.172568
     72          6           0       -2.044312    4.575730   -2.121404
     73          1           0       -2.698727    5.383132   -1.798073
     74          6           0       -2.010402    4.207161   -3.465452
     75          1           0       -2.638432    4.724922   -4.184244
     76          6           0       -1.175895    3.171884   -3.883590
     77          1           0       -1.151214    2.877655   -4.928138
     78          6           0       -0.371753    2.516697   -2.951148
     79          1           0        0.281194    1.705122   -3.265727
     80          6           0       -0.416674    2.881750   -1.603694
     81          1           0        0.213530    2.367919   -0.877283
     82          6           0       -6.621041    1.316184    3.321200
     83          6           0       -6.871968    1.585154    1.843902
     84          1           0       -5.922886    1.773944    1.336831
     85          1           0       -7.520225    2.456208    1.704766
     86         16           0       -7.649131    0.140533    1.049697
     87          6           0       -7.366001    0.572715   -0.711470
     88          1           0       -7.732964    1.588042   -0.880509
     89          1           0       -8.018164   -0.105550   -1.268912
     90          6           0       -5.933589    0.407905   -1.153471
     91          6           0       -5.446198   -0.892271   -1.326024
     92          6           0       -4.134988   -1.132031   -1.721014
     93          1           0       -6.121330   -1.724353   -1.151342
     94          6           0       -5.082777    1.499228   -1.394889
     95          6           0       -5.557440    2.931663   -1.316231
     96          1           0       -6.302717    3.144043   -2.090937
     97          1           0       -6.017951    3.169612   -0.352378
     98          1           0       -4.716972    3.614967   -1.465711
     99          6           0       -3.753444    1.250633   -1.747193
    100          1           0       -3.076139    2.083148   -1.921928
    101          6           0       -3.263398   -0.043745   -1.897625
    102          7           0       -1.966806   -0.307721   -2.315184
    103          6           0       -1.416443   -1.569217   -1.889716
    104          6           0       -0.065658   -1.730274   -2.572423
    105          8           0        0.677447   -0.775959   -2.713679
    106          7           0        0.257933   -3.008219   -2.899424
    107          1           0        1.238528   -3.198147   -3.109675
    108          6           0       -0.631003   -4.100952   -2.887765
    109          8           0       -0.193018   -5.205462   -3.143318
    110          7           0       -1.967542   -3.873861   -2.627629
    111          6           0       -2.364135   -2.694477   -2.245943
    112          7           0       -3.674794   -2.437274   -2.043227
    113          6           0       -4.671557   -3.482939   -2.266300
    114          6           0       -4.586389   -2.442502    2.972001
    115          6           0       -3.420188   -1.853840    2.174132
    116          1           0       -2.516148   -2.456935    2.330840
    117          1           0       -3.645568   -1.908235    1.101713
    118          6           0       -3.137921   -0.412793    2.519986
    119          6           0       -3.580568    0.608044    1.676516
    120          1           0       -4.124364    0.342681    0.773679
    121          6           0       -3.328737    1.948523    1.953221
    122          1           0       -3.662914    2.732268    1.277902
    123          6           0       -2.616314    2.292306    3.103284
    124          8           0       -2.370886    3.615877    3.326897
    125          1           0       -1.879773    3.715418    4.156315
    126          6           0       -2.173597    1.287358    3.968285
    127          1           0       -1.616517    1.551890    4.864193
    128          6           0       -2.436071   -0.048857    3.672238
    129          1           0       -2.070948   -0.821524    4.345349
    130          6           0       -3.419507   -5.044055    0.480501
    131          6           0       -2.431332   -5.489984    1.561928
    132          1           0       -2.763215   -5.121893    2.540274
    133          1           0       -2.435363   -6.585521    1.623779
    134          6           0       -1.028080   -4.993567    1.297211
    135          6           0       -0.336300   -4.221376    2.234819
    136          1           0       -0.805692   -3.998175    3.190555
    137          6           0        0.938056   -3.722928    1.973500
    138          1           0        1.464225   -3.119567    2.707039
    139          6           0        1.547567   -3.998190    0.751080
    140          8           0        2.796829   -3.506421    0.510500
    141          1           0        2.951092   -3.510744   -0.465899
    142          6           0        0.884300   -4.785961   -0.192211
    143          1           0        1.361488   -5.013090   -1.141936
    144          6           0       -0.388950   -5.272017    0.083493
    145          1           0       -0.889502   -5.869466   -0.674839
    146          1           0       -6.190722    2.205754    3.790857
    147          1           0       -5.913643    0.490858    3.447442
    148          1           0       -7.548487    1.067058    3.845728
    149          1           0       -5.155783   -3.747860   -1.322608
    150          1           0       -4.166586   -4.354947   -2.672071
    151          1           0       -5.422288   -3.117472   -2.970930
    152          1           0        0.680171    5.232566    0.325881
    153          1           0       -0.400516    5.780766    1.624844
    154          1           0       -0.628604    6.371759   -0.033407
    155          1           0        3.501648    6.437511   -3.432282
    156          1           0        4.404577    7.291224   -2.173009
    157          1           0        2.955977    8.031991   -2.879091
    158          6           0        6.815864   -1.560981    0.300206
    159          1           0        5.100658   -2.514630    1.171519
    160          1           0        7.808036   -1.821393   -0.089398
    161          1           0        6.951397   -0.821605    1.098696
    162          1           0        6.251947   -1.081565   -0.506885
    163          1           0       -3.141093   -5.441093   -0.500899
    164          1           0       -3.426988   -3.951042    0.397846
    165          1           0       -4.435806   -5.381166    0.709403
    166          1           0        7.162287   -0.810069   -3.388610
    167          1           0        6.005752   -1.725935   -4.371532
    168          1           0        6.096501   -1.996151   -2.627684
    169          1           0       -5.508701   -1.888473    2.766930
    170          1           0       -4.390558   -2.390563    4.048223
    171          1           0       -4.753098   -3.491774    2.705514
 ---------------------------------------------------------------------
 Rotational constants (GHZ):           0.0314552           0.0229903           0.0184511
 Leave Link  202 at Mon Apr  4 10:43:42 2022, MaxMem=  4294967296 cpu:               9.2 elap:               0.2
 (Enter /share/apps/g16/l301.exe)
 Standard basis: 6-311++G(d,p) (5D, 7F)
 Ernie: Thresh=  0.10000D-02 Tol=  0.10000D-05 Strict=F.
 There are  2501 symmetry adapted cartesian basis functions of A   symmetry.
 There are  2420 symmetry adapted basis functions of A   symmetry.
  2420 basis functions,  3740 primitive gaussians,  2501 cartesian basis functions
   302 alpha electrons      302 beta electrons
       nuclear repulsion energy     16510.1450320614 Hartrees.
 IExCor= 1009 DFT=T Ex+Corr=PBE1PBE ExCW=0 ScaHFX=  0.250000
 ScaDFX=  0.750000  0.750000  1.000000  1.000000 ScalE2=  1.000000  1.000000
 IRadAn=      5 IRanWt=     -1 IRanGd=            0 ICorTp=0 IEmpDi=  4
 NAtoms=  171 NActive=  171 NUniq=  171 SFac= 1.00D+00 NAtFMM=   60 NAOKFM=T Big=T
 Integral buffers will be    131072 words long.
 Raffenetti 2 integral format.
 Two-electron integral symmetry is turned on.
 Using the following non-standard input for PCM:
 eps=4.0
 --- end of non-standard input.
 ------------------------------------------------------------------------------
 Polarizable Continuum Model (PCM)
 =================================
 Model                : C-PCM.
 Atomic radii         : UFF (Universal Force Field).
 Polarization charges : Total charges.
 Charge compensation  : None.
 Solution method      : On-the-fly selection.
 Cavity type          : Scaled VdW (van der Waals Surface) (Alpha=1.100).
 Cavity algorithm     : GePol (No added spheres)
                        Default sphere list used, NSphG=  171.
                        Lebedev-Laikov grids with approx.  5.0 points / Ang**2.
                        Smoothing algorithm: York/Karplus (Gamma=1.0000).
                        Polarization charges: spherical gaussians, with
                                              point-specific exponents (IZeta= 3).
                        Self-potential: point-specific (ISelfS= 7).
                        Self-field    : sphere-specific E.n sum rule (ISelfD= 2).
 Solvent              : Water, Eps=   4.000000 Eps(inf)=   1.777849
 ------------------------------------------------------------------------------
 GePol: Number of generator spheres                  =     171
 GePol: Total number of spheres                      =     171
 GePol: Number of exposed spheres                    =     171 (100.00%)
 GePol: Number of points                             =    8768
 GePol: Average weight of points                     =       0.12
 GePol: Minimum weight of points                     =   0.70D-11
 GePol: Maximum weight of points                     =    0.20577
 GePol: Number of points with low weight             =     783
 GePol: Fraction of low-weight points (<1% of avg)   =       8.93%
 GePol: Cavity surface area                          =   1052.222 Ang**2
 GePol: Cavity volume                                =   1576.230 Ang**3
 Leave Link  301 at Mon Apr  4 10:43:43 2022, MaxMem=  4294967296 cpu:               9.8 elap:               0.2
 (Enter /share/apps/g16/l302.exe)
 NPDir=0 NMtPBC=     1 NCelOv=     1 NCel=       1 NClECP=     1 NCelD=      1
         NCelK=      1 NCelE2=     1 NClLst=     1 CellRange=     0.0.
 One-electron integrals computed using PRISM.
 One-electron integral symmetry used in STVInt
 NBasis=  2420 RedAO= T EigKep=  1.01D-06  NBF=  2420
 NBsUse=  2377 1.00D-06 EigRej=  9.59D-07 NBFU=  2377
 Precomputing XC quadrature grid using
 IXCGrd= 4 IRadAn=           5 IRanWt=          -1 IRanGd=           0 AccXCQ= 0.00D+00.
 Generated NRdTot=       0 NPtTot=           0 NUsed=           0 NTot=          32
 NSgBfM=  2136  2132  2136  2136  2136 MxSgAt=   171 MxSgA2=   171.
 Leave Link  302 at Mon Apr  4 10:44:07 2022, MaxMem=  4294967296 cpu:            1543.0 elap:              24.2
 (Enter /share/apps/g16/l303.exe)
 DipDrv:  MaxL=1.
 Leave Link  303 at Mon Apr  4 10:44:09 2022, MaxMem=  4294967296 cpu:              70.0 elap:               1.6
 (Enter /share/apps/g16/l401.exe)
 ExpMin= 3.60D-02 ExpMax= 9.34D+04 ExpMxC= 3.17D+03 IAcc=3 IRadAn=         5 AccDes= 0.00D+00
 Harris functional with IExCor= 1009 and IRadAn=       5 diagonalized for initial guess.
 HarFok:  IExCor= 1009 AccDes= 0.00D+00 IRadAn=         5 IDoV= 1 UseB2=F ITyADJ=14
 ICtDFT=  3500011 ScaDFX=  1.000000  1.000000  1.000000  1.000000
 FoFCou: FMM=F IPFlag=           0 FMFlag=      100000 FMFlg1=        2001
         NFxFlg=           0 DoJE=T BraDBF=F KetDBF=T FulRan=T
         wScrn=  0.000000 ICntrl=       500 IOpCl=  0 I1Cent=   200000004 NGrid=           0
         NMat0=    1 NMatS0=      1 NMatT0=    0 NMatD0=    1 NMtDS0=    0 NMtDT0=    0
 Petite list used in FoFCou.
 Harris En= -3821.40063971641    
 JPrj=0 DoOrth=F DoCkMO=F.
 Leave Link  401 at Mon Apr  4 10:44:53 2022, MaxMem=  4294967296 cpu:            2815.1 elap:              44.3
 (Enter /share/apps/g16/l502.exe)
 Integral symmetry usage will be decided dynamically.
 Closed shell SCF:
 Using DIIS extrapolation, IDIIS=  1040.
 NGot=  4294967296 LenX=  4282273394 LenY=  4276015892
 Requested convergence on RMS density matrix=1.00D-08 within  32 cycles.
 Requested convergence on MAX density matrix=1.00D-06.
 Requested convergence on             energy=1.00D-06.
 No special actions if energy rises.
 Fock matrices will be formed incrementally for  20 cycles.

 Cycle   1  Pass 1  IDiag  1:
 FoFJK:  IHMeth= 1 ICntrl=       0 DoSepK=F KAlg= 0 I1Cent=           0 FoldK=F
 IRaf= 760000000 NMat=       1 IRICut=       1 DoRegI=T DoRafI=F ISym2E= 0 IDoP0=0 IntGTp=1.
 FoFCou: FMM=T IPFlag=           0 FMFlag=      100000 FMFlg1=        2001
         NFxFlg=           0 DoJE=F BraDBF=F KetDBF=F FulRan=T
         wScrn=  0.000000 ICntrl=         0 IOpCl=  0 I1Cent=           0 NGrid=           0
         NMat0=    1 NMatS0=      1 NMatT0=    0 NMatD0=    1 NMtDS0=    0 NMtDT0=    0
 Symmetry not used in FoFCou.
 FMM levels:  10  Number of levels for PrismC:   9
 Inv3:  Mode=1 IEnd=   230633472.
 Iteration    1 A*A^-1 deviation from unit magnitude is 4.93D-14 for    959.
 Iteration    1 A*A^-1 deviation from orthogonality  is 6.54D-15 for   8021    124.
 Iteration    1 A^-1*A deviation from unit magnitude is 4.93D-14 for    959.
 Iteration    1 A^-1*A deviation from orthogonality  is 6.48D-15 for   6001   1472.
 E= -3818.16737374361    
 DIIS: error= 1.53D-02 at cycle   1 NSaved=   1.
 NSaved= 1 IEnMin= 1 EnMin= -3818.16737374361     IErMin= 1 ErrMin= 1.53D-02
 ErrMax= 1.53D-02  0.00D+00 EMaxC= 1.00D-01 BMatC= 2.45D+00 BMatP= 2.45D+00
 IDIUse=3 WtCom= 8.47D-01 WtEn= 1.53D-01
 Coeff-Com:  0.100D+01
 Coeff-En:   0.100D+01
 Coeff:      0.100D+01
 Gap=     0.311 Goal=   None    Shift=    0.000
 GapD=    0.311 DampG=1.000 DampE=0.500 DampFc=0.5000 IDamp=-1.
 Damping current iteration by 5.00D-01
 RMSDP=1.81D-02 MaxDP=2.50D+00              OVMax= 1.93D-01

 Cycle   2  Pass 1  IDiag  1:
 RMSU=  8.58D-03    CP:  9.21D-01
 E= -3819.06913248211     Delta-E=       -0.901758738491 Rises=F Damp=T
 DIIS: error= 8.59D-03 at cycle   2 NSaved=   2.
 NSaved= 2 IEnMin= 2 EnMin= -3819.06913248211     IErMin= 2 ErrMin= 8.59D-03
 ErrMax= 8.59D-03  0.00D+00 EMaxC= 1.00D-01 BMatC= 2.07D-01 BMatP= 2.45D+00
 IDIUse=3 WtCom= 9.14D-01 WtEn= 8.59D-02
 Coeff-Com:  0.548D-01 0.945D+00
 Coeff-En:   0.135D+00 0.865D+00
 Coeff:      0.616D-01 0.938D+00
 Gap=     0.182 Goal=   None    Shift=    0.000
 RMSDP=8.01D-03 MaxDP=2.12D+00 DE=-9.02D-01 OVMax= 2.00D-01

 Cycle   3  Pass 1  IDiag  1:
 RMSU=  4.76D-03    CP:  8.27D-01  3.71D-01
 E= -3820.06680443016     Delta-E=       -0.997671948055 Rises=F Damp=F
 DIIS: error= 1.79D-02 at cycle   3 NSaved=   3.
 NSaved= 3 IEnMin= 3 EnMin= -3820.06680443016     IErMin= 2 ErrMin= 8.59D-03
 ErrMax= 1.79D-02  0.00D+00 EMaxC= 1.00D-01 BMatC= 2.69D-01 BMatP= 2.07D-01
 IDIUse=2 WtCom= 0.00D+00 WtEn= 1.00D+00
 Coeff-En:   0.000D+00 0.000D+00 0.100D+01
 Coeff:      0.000D+00 0.000D+00 0.100D+01
 Gap=     0.173 Goal=   None    Shift=    0.000
 RMSDP=1.04D-02 MaxDP=2.95D+00 DE=-9.98D-01 OVMax= 3.25D-01

 Cycle   4  Pass 1  IDiag  1:
 RMSU=  6.47D-03    CP:  8.45D-01  1.19D+00  1.21D-01
 E= -3819.01058513198     Delta-E=        1.056219298178 Rises=F Damp=F
 DIIS: error= 4.09D-02 at cycle   4 NSaved=   4.
 NSaved= 4 IEnMin= 3 EnMin= -3820.06680443016     IErMin= 2 ErrMin= 8.59D-03
 ErrMax= 4.09D-02  0.00D+00 EMaxC= 1.00D-01 BMatC= 1.53D+00 BMatP= 2.07D-01
 IDIUse=2 WtCom= 0.00D+00 WtEn= 1.00D+00
 Coeff-En:   0.000D+00 0.000D+00 0.796D+00 0.204D+00
 Coeff:      0.000D+00 0.000D+00 0.796D+00 0.204D+00
 Gap=     0.190 Goal=   None    Shift=    0.000
 RMSDP=5.28D-03 MaxDP=1.42D+00 DE= 1.06D+00 OVMax= 2.06D-01

 Cycle   5  Pass 1  IDiag  1:
 RMSU=  1.87D-03    CP:  8.13D-01  8.55D-01  5.01D-01  4.77D-01
 E= -3820.20064423062     Delta-E=       -1.190059098641 Rises=F Damp=F
 DIIS: error= 1.10D-02 at cycle   5 NSaved=   5.
 NSaved= 5 IEnMin= 5 EnMin= -3820.20064423062     IErMin= 2 ErrMin= 8.59D-03
 ErrMax= 1.10D-02  0.00D+00 EMaxC= 1.00D-01 BMatC= 1.11D-01 BMatP= 2.07D-01
 IDIUse=3 WtCom= 8.90D-01 WtEn= 1.10D-01
 Coeff-Com:  0.327D-02 0.790D-02 0.339D+00-0.478D-01 0.697D+00
 Coeff-En:   0.000D+00 0.000D+00 0.338D+00 0.000D+00 0.662D+00
 Coeff:      0.291D-02 0.703D-02 0.339D+00-0.425D-01 0.693D+00
 Gap=     0.157 Goal=   None    Shift=    0.000
 RMSDP=2.20D-03 MaxDP=5.62D-01 DE=-1.19D+00 OVMax= 5.86D-02

 Cycle   6  Pass 1  IDiag  1:
 RMSU=  5.33D-04    CP:  8.09D-01  6.83D-01  6.94D-01  2.92D-01  8.65D-01
 E= -3820.29314462664     Delta-E=       -0.092500396018 Rises=F Damp=F
 DIIS: error= 6.58D-04 at cycle   6 NSaved=   6.
 NSaved= 6 IEnMin= 6 EnMin= -3820.29314462664     IErMin= 6 ErrMin= 6.58D-04
 ErrMax= 6.58D-04  0.00D+00 EMaxC= 1.00D-01 BMatC= 2.19D-03 BMatP= 1.11D-01
 IDIUse=3 WtCom= 9.93D-01 WtEn= 6.58D-03
 Coeff-Com:  0.125D-02 0.313D-04 0.162D+00-0.546D-01 0.460D+00 0.431D+00
 Coeff-En:   0.000D+00 0.000D+00 0.000D+00 0.000D+00 0.000D+00 0.100D+01
 Coeff:      0.124D-02 0.311D-04 0.161D+00-0.542D-01 0.457D+00 0.435D+00
 Gap=     0.155 Goal=   None    Shift=    0.000
 RMSDP=3.18D-04 MaxDP=6.86D-02 DE=-9.25D-02 OVMax= 9.07D-03

 Cycle   7  Pass 1  IDiag  1:
 RMSU=  1.61D-04    CP:  8.07D-01  6.85D-01  6.84D-01  2.97D-01  8.71D-01
                    CP:  5.18D-01
 E= -3820.29513335833     Delta-E=       -0.001988731688 Rises=F Damp=F
 DIIS: error= 1.17D-04 at cycle   7 NSaved=   7.
 NSaved= 7 IEnMin= 7 EnMin= -3820.29513335833     IErMin= 7 ErrMin= 1.17D-04
 ErrMax= 1.17D-04  0.00D+00 EMaxC= 1.00D-01 BMatC= 6.76D-05 BMatP= 2.19D-03
 IDIUse=3 WtCom= 9.99D-01 WtEn= 1.17D-03
 Coeff-Com:  0.482D-03-0.284D-03 0.510D-01-0.205D-01 0.146D+00 0.170D+00
 Coeff-Com:  0.653D+00
 Coeff-En:   0.000D+00 0.000D+00 0.000D+00 0.000D+00 0.000D+00 0.000D+00
 Coeff-En:   0.100D+01
 Coeff:      0.482D-03-0.284D-03 0.509D-01-0.205D-01 0.146D+00 0.170D+00
 Coeff:      0.653D+00
 Gap=     0.155 Goal=   None    Shift=    0.000
 RMSDP=6.55D-05 MaxDP=8.90D-03 DE=-1.99D-03 OVMax= 1.89D-03

 Cycle   8  Pass 1  IDiag  1:
 RMSU=  5.23D-05    CP:  8.08D-01  6.84D-01  6.86D-01  2.96D-01  8.79D-01
                    CP:  5.33D-01  8.00D-01
 E= -3820.29518270242     Delta-E=       -0.000049344089 Rises=F Damp=F
 DIIS: error= 9.45D-05 at cycle   8 NSaved=   8.
 NSaved= 8 IEnMin= 8 EnMin= -3820.29518270242     IErMin= 8 ErrMin= 9.45D-05
 ErrMax= 9.45D-05  0.00D+00 EMaxC= 1.00D-01 BMatC= 1.62D-05 BMatP= 6.76D-05
 IDIUse=1 WtCom= 1.00D+00 WtEn= 0.00D+00
 Coeff-Com:  0.209D-03-0.525D-03 0.625D-02-0.301D-02 0.125D-01 0.268D-01
 Coeff-Com:  0.394D+00 0.563D+00
 Coeff:      0.209D-03-0.525D-03 0.625D-02-0.301D-02 0.125D-01 0.268D-01
 Coeff:      0.394D+00 0.563D+00
 Gap=     0.155 Goal=   None    Shift=    0.000
 RMSDP=2.91D-05 MaxDP=5.09D-03 DE=-4.93D-05 OVMax= 6.74D-04

 Cycle   9  Pass 1  IDiag  1:
 RMSU=  1.57D-05    CP:  8.07D-01  6.83D-01  6.87D-01  2.96D-01  8.76D-01
                    CP:  5.35D-01  8.59D-01  6.77D-01
 E= -3820.29519636532     Delta-E=       -0.000013662899 Rises=F Damp=F
 DIIS: error= 1.35D-05 at cycle   9 NSaved=   9.
 NSaved= 9 IEnMin= 9 EnMin= -3820.29519636532     IErMin= 9 ErrMin= 1.35D-05
 ErrMax= 1.35D-05  0.00D+00 EMaxC= 1.00D-01 BMatC= 1.22D-06 BMatP= 1.62D-05
 IDIUse=1 WtCom= 1.00D+00 WtEn= 0.00D+00
 Coeff-Com:  0.107D-03-0.381D-03 0.503D-03-0.376D-03-0.190D-02 0.546D-02
 Coeff-Com:  0.184D+00 0.325D+00 0.488D+00
 Coeff:      0.107D-03-0.381D-03 0.503D-03-0.376D-03-0.190D-02 0.546D-02
 Coeff:      0.184D+00 0.325D+00 0.488D+00
 Gap=     0.155 Goal=   None    Shift=    0.000
 RMSDP=7.74D-06 MaxDP=1.28D-03 DE=-1.37D-05 OVMax= 2.46D-04

 Cycle  10  Pass 1  IDiag  1:
 RMSU=  5.79D-06    CP:  8.07D-01  6.83D-01  6.88D-01  2.95D-01  8.77D-01
                    CP:  5.37D-01  8.67D-01  6.99D-01  7.35D-01
 E= -3820.29519743084     Delta-E=       -0.000001065520 Rises=F Damp=F
 DIIS: error= 4.66D-06 at cycle  10 NSaved=  10.
 NSaved=10 IEnMin=10 EnMin= -3820.29519743084     IErMin=10 ErrMin= 4.66D-06
 ErrMax= 4.66D-06  0.00D+00 EMaxC= 1.00D-01 BMatC= 1.02D-07 BMatP= 1.22D-06
 IDIUse=1 WtCom= 1.00D+00 WtEn= 0.00D+00
 Coeff-Com:  0.215D-04-0.113D-03-0.694D-03 0.241D-03-0.277D-02 0.129D-03
 Coeff-Com:  0.417D-01 0.910D-01 0.246D+00 0.625D+00
 Coeff:      0.215D-04-0.113D-03-0.694D-03 0.241D-03-0.277D-02 0.129D-03
 Coeff:      0.417D-01 0.910D-01 0.246D+00 0.625D+00
 Gap=     0.155 Goal=   None    Shift=    0.000
 RMSDP=3.21D-06 MaxDP=3.38D-04 DE=-1.07D-06 OVMax= 8.71D-05

 Cycle  11  Pass 1  IDiag  1:
 RMSU=  2.41D-06    CP:  8.07D-01  6.83D-01  6.88D-01  2.96D-01  8.76D-01
                    CP:  5.37D-01  8.71D-01  7.02D-01  7.59D-01  7.56D-01
 E= -3820.29519751651     Delta-E=       -0.000000085671 Rises=F Damp=F
 DIIS: error= 3.13D-06 at cycle  11 NSaved=  11.
 NSaved=11 IEnMin=11 EnMin= -3820.29519751651     IErMin=11 ErrMin= 3.13D-06
 ErrMax= 3.13D-06  0.00D+00 EMaxC= 1.00D-01 BMatC= 1.66D-08 BMatP= 1.02D-07
 IDIUse=1 WtCom= 1.00D+00 WtEn= 0.00D+00
 Coeff-Com: -0.286D-05-0.105D-04-0.517D-03 0.168D-03-0.139D-02-0.104D-03
 Coeff-Com:  0.509D-02 0.182D-01 0.842D-01 0.343D+00 0.552D+00
 Coeff:     -0.286D-05-0.105D-04-0.517D-03 0.168D-03-0.139D-02-0.104D-03
 Coeff:      0.509D-02 0.182D-01 0.842D-01 0.343D+00 0.552D+00
 Gap=     0.155 Goal=   None    Shift=    0.000
 RMSDP=1.13D-06 MaxDP=1.97D-04 DE=-8.57D-08 OVMax= 2.66D-05

 Cycle  12  Pass 1  IDiag  1:
 RMSU=  7.02D-07    CP:  8.07D-01  6.83D-01  6.88D-01  2.96D-01  8.76D-01
                    CP:  5.38D-01  8.70D-01  7.06D-01  7.68D-01  8.39D-01
                    CP:  9.11D-01
 E= -3820.29519753509     Delta-E=       -0.000000018583 Rises=F Damp=F
 DIIS: error= 8.94D-07 at cycle  12 NSaved=  12.
 NSaved=12 IEnMin=12 EnMin= -3820.29519753509     IErMin=12 ErrMin= 8.94D-07
 ErrMax= 8.94D-07  0.00D+00 EMaxC= 1.00D-01 BMatC= 2.45D-09 BMatP= 1.66D-08
 IDIUse=1 WtCom= 1.00D+00 WtEn= 0.00D+00
 Coeff-Com: -0.564D-05 0.996D-05-0.240D-03 0.753D-04-0.494D-03 0.322D-04
 Coeff-Com: -0.237D-02-0.135D-02 0.141D-01 0.109D+00 0.308D+00 0.574D+00
 Coeff:     -0.564D-05 0.996D-05-0.240D-03 0.753D-04-0.494D-03 0.322D-04
 Coeff:     -0.237D-02-0.135D-02 0.141D-01 0.109D+00 0.308D+00 0.574D+00
 Gap=     0.155 Goal=   None    Shift=    0.000
 RMSDP=4.15D-07 MaxDP=5.87D-05 DE=-1.86D-08 OVMax= 1.78D-05

 Cycle  13  Pass 1  IDiag  1:
 RMSU=  2.99D-07    CP:  8.07D-01  6.83D-01  6.88D-01  2.96D-01  8.76D-01
                    CP:  5.38D-01  8.70D-01  7.06D-01  7.79D-01  8.42D-01
                    CP:  9.22D-01  8.21D-01
 E= -3820.29519753524     Delta-E=       -0.000000000149 Rises=F Damp=F
 DIIS: error= 4.30D-07 at cycle  13 NSaved=  13.
 NSaved=13 IEnMin=13 EnMin= -3820.29519753524     IErMin=13 ErrMin= 4.30D-07
 ErrMax= 4.30D-07  0.00D+00 EMaxC= 1.00D-01 BMatC= 2.79D-10 BMatP= 2.45D-09
 IDIUse=1 WtCom= 1.00D+00 WtEn= 0.00D+00
 Coeff-Com: -0.289D-05 0.700D-05-0.482D-04 0.129D-04-0.349D-04 0.914D-04
 Coeff-Com: -0.191D-02-0.361D-02-0.677D-02-0.146D-03 0.678D-01 0.298D+00
 Coeff-Com:  0.646D+00
 Coeff:     -0.289D-05 0.700D-05-0.482D-04 0.129D-04-0.349D-04 0.914D-04
 Coeff:     -0.191D-02-0.361D-02-0.677D-02-0.146D-03 0.678D-01 0.298D+00
 Coeff:      0.646D+00
 Gap=     0.155 Goal=   None    Shift=    0.000
 RMSDP=1.60D-07 MaxDP=2.41D-05 DE=-1.49D-10 OVMax= 4.76D-06

 Cycle  14  Pass 1  IDiag  1:
 RMSU=  1.01D-07    CP:  8.07D-01  6.83D-01  6.88D-01  2.96D-01  8.77D-01
                    CP:  5.38D-01  8.70D-01  7.07D-01  7.78D-01  8.50D-01
                    CP:  9.49D-01  9.11D-01  9.26D-01
 E= -3820.29519753275     Delta-E=        0.000000002488 Rises=F Damp=F
 DIIS: error= 7.38D-08 at cycle  14 NSaved=  14.
 NSaved=14 IEnMin=13 EnMin= -3820.29519753524     IErMin=14 ErrMin= 7.38D-08
 ErrMax= 7.38D-08  0.00D+00 EMaxC= 1.00D-01 BMatC= 3.71D-11 BMatP= 2.79D-10
 IDIUse=1 WtCom= 1.00D+00 WtEn= 0.00D+00
 Coeff-Com: -0.768D-06 0.212D-05 0.284D-05-0.113D-05 0.333D-04 0.386D-04
 Coeff-Com: -0.626D-03-0.165D-02-0.532D-02-0.154D-01-0.662D-02 0.818D-01
 Coeff-Com:  0.362D+00 0.586D+00
 Coeff:     -0.768D-06 0.212D-05 0.284D-05-0.113D-05 0.333D-04 0.386D-04
 Coeff:     -0.626D-03-0.165D-02-0.532D-02-0.154D-01-0.662D-02 0.818D-01
 Coeff:      0.362D+00 0.586D+00
 Gap=     0.155 Goal=   None    Shift=    0.000
 RMSDP=6.07D-08 MaxDP=1.02D-05 DE= 2.49D-09 OVMax= 2.20D-06

 Cycle  15  Pass 1  IDiag  1:
 RMSU=  3.31D-08    CP:  8.07D-01  6.83D-01  6.88D-01  2.96D-01  8.77D-01
                    CP:  5.38D-01  8.70D-01  7.07D-01  7.79D-01  8.52D-01
                    CP:  9.60D-01  9.35D-01  9.63D-01  8.60D-01
 E= -3820.29519753821     Delta-E=       -0.000000005461 Rises=F Damp=F
 DIIS: error= 2.50D-08 at cycle  15 NSaved=  15.
 NSaved=15 IEnMin=15 EnMin= -3820.29519753821     IErMin=15 ErrMin= 2.50D-08
 ErrMax= 2.50D-08  0.00D+00 EMaxC= 1.00D-01 BMatC= 3.37D-12 BMatP= 3.71D-11
 IDIUse=1 WtCom= 1.00D+00 WtEn= 0.00D+00
 Coeff-Com: -0.107D-06 0.542D-06 0.774D-05-0.261D-05 0.250D-04 0.120D-04
 Coeff-Com: -0.146D-03-0.539D-03-0.213D-02-0.823D-02-0.981D-02 0.122D-01
 Coeff-Com:  0.122D+00 0.293D+00 0.594D+00
 Coeff:     -0.107D-06 0.542D-06 0.774D-05-0.261D-05 0.250D-04 0.120D-04
 Coeff:     -0.146D-03-0.539D-03-0.213D-02-0.823D-02-0.981D-02 0.122D-01
 Coeff:      0.122D+00 0.293D+00 0.594D+00
 Gap=     0.155 Goal=   None    Shift=    0.000
 RMSDP=1.72D-08 MaxDP=3.90D-06 DE=-5.46D-09 OVMax= 6.04D-07

 Cycle  16  Pass 1  IDiag  1:
 RMSU=  1.09D-08    CP:  8.07D-01  6.83D-01  6.88D-01  2.96D-01  8.77D-01
                    CP:  5.38D-01  8.70D-01  7.07D-01  7.79D-01  8.52D-01
                    CP:  9.62D-01  9.41D-01  9.85D-01  8.75D-01  8.49D-01
 E= -3820.29519753818     Delta-E=        0.000000000029 Rises=F Damp=F
 DIIS: error= 1.46D-08 at cycle  16 NSaved=  16.
 NSaved=16 IEnMin=15 EnMin= -3820.29519753821     IErMin=16 ErrMin= 1.46D-08
 ErrMax= 1.46D-08  0.00D+00 EMaxC= 1.00D-01 BMatC= 6.36D-13 BMatP= 3.37D-12
 IDIUse=1 WtCom= 1.00D+00 WtEn= 0.00D+00
 Coeff-Com:  0.776D-07-0.769D-07 0.316D-05-0.848D-06 0.561D-05-0.185D-05
 Coeff-Com:  0.237D-04-0.194D-04-0.250D-03-0.186D-02-0.352D-02-0.475D-02
 Coeff-Com:  0.135D-01 0.716D-01 0.320D+00 0.605D+00
 Coeff:      0.776D-07-0.769D-07 0.316D-05-0.848D-06 0.561D-05-0.185D-05
 Coeff:      0.237D-04-0.194D-04-0.250D-03-0.186D-02-0.352D-02-0.475D-02
 Coeff:      0.135D-01 0.716D-01 0.320D+00 0.605D+00
 Gap=     0.155 Goal=   None    Shift=    0.000
 RMSDP=7.84D-09 MaxDP=1.78D-06 DE= 2.91D-11 OVMax= 2.15D-07

 Cycle  17  Pass 1  IDiag  1:
 RMSU=  5.21D-09    CP:  8.07D-01  6.83D-01  6.88D-01  2.96D-01  8.77D-01
                    CP:  5.38D-01  8.70D-01  7.07D-01  7.79D-01  8.52D-01
                    CP:  9.62D-01  9.41D-01  9.91D-01  8.88D-01  9.20D-01
                    CP:  8.49D-01
 E= -3820.29519754001     Delta-E=       -0.000000001826 Rises=F Damp=F
 DIIS: error= 4.83D-09 at cycle  17 NSaved=  17.
 NSaved=17 IEnMin=17 EnMin= -3820.29519754001     IErMin=17 ErrMin= 4.83D-09
 ErrMax= 4.83D-09  0.00D+00 EMaxC= 1.00D-01 BMatC= 7.24D-14 BMatP= 6.36D-13
 IDIUse=1 WtCom= 1.00D+00 WtEn= 0.00D+00
 Coeff-Com:  0.588D-07-0.108D-06 0.828D-06-0.219D-06 0.369D-06-0.232D-05
 Coeff-Com:  0.278D-04 0.534D-04 0.151D-03 0.162D-03-0.304D-03-0.410D-02
 Coeff-Com: -0.108D-01-0.765D-02 0.672D-01 0.308D+00 0.647D+00
 Coeff:      0.588D-07-0.108D-06 0.828D-06-0.219D-06 0.369D-06-0.232D-05
 Coeff:      0.278D-04 0.534D-04 0.151D-03 0.162D-03-0.304D-03-0.410D-02
 Coeff:     -0.108D-01-0.765D-02 0.672D-01 0.308D+00 0.647D+00
 Gap=     0.155 Goal=   None    Shift=    0.000
 RMSDP=2.57D-09 MaxDP=2.76D-07 DE=-1.83D-09 OVMax= 9.46D-08

 Error on total polarization charges =  0.02343
 SCF Done:  E(RPBE1PBE) =  -3820.29519754     A.U. after   17 cycles
            NFock= 17  Conv=0.26D-08     -V/T= 2.0040
 KE= 3.805095375495D+03 PE=-4.193100676738D+04 EE= 1.779547116229D+04
 Leave Link  502 at Mon Apr  4 13:02:27 2022, MaxMem=  4294967296 cpu:          524474.0 elap:            8253.9
 (Enter /share/apps/g16/l508.exe)
 QCSCF skips out because SCF is already converged.
 Leave Link  508 at Mon Apr  4 13:02:27 2022, MaxMem=  4294967296 cpu:               2.8 elap:               0.1
 (Enter /share/apps/g16/l601.exe)
 Copying SCF densities to generalized density rwf, IOpCl= 0 IROHF=0.
 Hyperfine terms turned off by default for NAtoms > 100.

 **********************************************************************

            Population analysis using the SCF Density.

 **********************************************************************

 Orbital symmetries:
       Occupied  (A) (A) (A) (A) (A) (A) (A) (A) (A) (A) (A) (A)
                 (A) (A) (A) (A) (A) (A) (A) (A) (A) (A) (A) (A)
                 (A) (A) (A) (A) (A) (A) (A) (A) (A) (A) (A) (A)
                 (A) (A) (A) (A) (A) (A) (A) (A) (A) (A) (A) (A)
                 (A) (A) (A) (A) (A) (A) (A) (A) (A) (A) (A) (A)
                 (A) (A) (A) (A) (A) (A) (A) (A) (A) (A) (A) (A)
                 (A) (A) (A) (A) (A) (A) (A) (A) (A) (A) (A) (A)
                 (A) (A) (A) (A) (A) (A) (A) (A) (A) (A) (A) (A)
                 (A) (A) (A) (A) (A) (A) (A) (A) (A) (A) (A) (A)
                 (A) (A) (A) (A) (A) (A) (A) (A) (A) (A) (A) (A)
                 (A) (A) (A) (A) (A) (A) (A) (A) (A) (A) (A) (A)
                 (A) (A) (A) (A) (A) (A) (A) (A) (A) (A) (A) (A)
                 (A) (A) (A) (A) (A) (A) (A) (A) (A) (A) (A) (A)
                 (A) (A) (A) (A) (A) (A) (A) (A) (A) (A) (A) (A)
                 (A) (A) (A) (A) (A) (A) (A) (A) (A) (A) (A) (A)
                 (A) (A) (A) (A) (A) (A) (A) (A) (A) (A) (A) (A)
                 (A) (A) (A) (A) (A) (A) (A) (A) (A) (A) (A) (A)
                 (A) (A) (A) (A) (A) (A) (A) (A) (A) (A) (A) (A)
                 (A) (A) (A) (A) (A) (A) (A) (A) (A) (A) (A) (A)
                 (A) (A) (A) (A) (A) (A) (A) (A) (A) (A) (A) (A)
                 (A) (A) (A) (A) (A) (A) (A) (A) (A) (A) (A) (A)
                 (A) (A) (A) (A) (A) (A) (A) (A) (A) (A) (A) (A)
                 (A) (A) (A) (A) (A) (A) (A) (A) (A) (A) (A) (A)
                 (A) (A) (A) (A) (A) (A) (A) (A) (A) (A) (A) (A)
                 (A) (A) (A) (A) (A) (A) (A) (A) (A) (A) (A) (A)
                 (A) (A)
       Virtual   (A) (A) (A) (A) (A) (A) (A) (A) (A) (A) (A) (A)
                 (A) (A) (A) (A) (A) (A) (A) (A) (A) (A) (A) (A)
                 (A) (A) (A) (A) (A) (A) (A) (A) (A) (A) (A) (A)
                 (A) (A) (A) (A) (A) (A) (A) (A) (A) (A) (A) (A)
                 (A) (A) (A) (A) (A) (A) (A) (A) (A) (A) (A) (A)
                 (A) (A) (A) (A) (A) (A) (A) (A) (A) (A) (A) (A)
                 (A) (A) (A) (A) (A) (A) (A) (A) (A) (A) (A) (A)
                 (A) (A) (A) (A) (A) (A) (A) (A) (A) (A) (A) (A)
                 (A) (A) (A) (A) (A) (A) (A) (A) (A) (A) (A) (A)
                 (A) (A) (A) (A) (A) (A) (A) (A) (A) (A) (A) (A)
                 (A) (A) (A) (A) (A) (A) (A) (A) (A) (A) (A) (A)
                 (A) (A) (A) (A) (A) (A) (A) (A) (A) (A) (A) (A)
                 (A) (A) (A) (A) (A) (A) (A) (A) (A) (A) (A) (A)
                 (A) (A) (A) (A) (A) (A) (A) (A) (A) (A) (A) (A)
                 (A) (A) (A) (A) (A) (A) (A) (A) (A) (A) (A) (A)
                 (A) (A) (A) (A) (A) (A) (A) (A) (A) (A) (A) (A)
                 (A) (A) (A) (A) (A) (A) (A) (A) (A) (A) (A) (A)
                 (A) (A) (A) (A) (A) (A) (A) (A) (A) (A) (A) (A)
                 (A) (A) (A) (A) (A) (A) (A) (A) (A) (A) (A) (A)
                 (A) (A) (A) (A) (A) (A) (A) (A) (A) (A) (A) (A)
                 (A) (A) (A) (A) (A) (A) (A) (A) (A) (A) (A) (A)
                 (A) (A) (A) (A) (A) (A) (A) (A) (A) (A) (A) (A)
                 (A) (A) (A) (A) (A) (A) (A) (A) (A) (A) (A) (A)
                 (A) (A) (A) (A) (A) (A) (A) (A) (A) (A) (A) (A)
                 (A) (A) (A) (A) (A) (A) (A) (A) (A) (A) (A) (A)
                 (A) (A) (A) (A) (A) (A) (A) (A) (A) (A) (A) (A)
                 (A) (A) (A) (A) (A) (A) (A) (A) (A) (A) (A) (A)
                 (A) (A) (A) (A) (A) (A) (A) (A) (A) (A) (A) (A)
                 (A) (A) (A) (A) (A) (A) (A) (A) (A) (A) (A) (A)
                 (A) (A) (A) (A) (A) (A) (A) (A) (A) (A) (A) (A)
                 (A) (A) (A) (A) (A) (A) (A) (A) (A) (A) (A) (A)
                 (A) (A) (A) (A) (A) (A) (A) (A) (A) (A) (A) (A)
                 (A) (A) (A) (A) (A) (A) (A) (A) (A) (A) (A) (A)
                 (A) (A) (A) (A) (A) (A) (A) (A) (A) (A) (A) (A)
                 (A) (A) (A) (A) (A) (A) (A) (A) (A) (A) (A) (A)
                 (A) (A) (A) (A) (A) (A) (A) (A) (A) (A) (A) (A)
                 (A) (A) (A) (A) (A) (A) (A) (A) (A) (A) (A) (A)
                 (A) (A) (A) (A) (A) (A) (A) (A) (A) (A) (A) (A)
                 (A) (A) (A) (A) (A) (A) (A) (A) (A) (A) (A) (A)
                 (A) (A) (A) (A) (A) (A) (A) (A) (A) (A) (A) (A)
                 (A) (A) (A) (A) (A) (A) (A) (A) (A) (A) (A) (A)
                 (A) (A) (A) (A) (A) (A) (A) (A) (A) (A) (A) (A)
                 (A) (A) (A) (A) (A) (A) (A) (A) (A) (A) (A) (A)
                 (A) (A) (A) (A) (A) (A) (A) (A) (A) (A) (A) (A)
                 (A) (A) (A) (A) (A) (A) (A) (A) (A) (A) (A) (A)
                 (A) (A) (A) (A) (A) (A) (A) (A) (A) (A) (A) (A)
                 (A) (A) (A) (A) (A) (A) (A) (A) (A) (A) (A) (A)
                 (A) (A) (A) (A) (A) (A) (A) (A) (A) (A) (A) (A)
                 (A) (A) (A) (A) (A) (A) (A) (A) (A) (A) (A) (A)
                 (A) (A) (A) (A) (A) (A) (A) (A) (A) (A) (A) (A)
                 (A) (A) (A) (A) (A) (A) (A) (A) (A) (A) (A) (A)
                 (A) (A) (A) (A) (A) (A) (A) (A) (A) (A) (A) (A)
                 (A) (A) (A) (A) (A) (A) (A) (A) (A) (A) (A) (A)
                 (A) (A) (A) (A) (A) (A) (A) (A) (A) (A) (A) (A)
                 (A) (A) (A) (A) (A) (A) (A) (A) (A) (A) (A) (A)
                 (A) (A) (A) (A) (A) (A) (A) (A) (A) (A) (A) (A)
                 (A) (A) (A) (A) (A) (A) (A) (A) (A) (A) (A) (A)
                 (A) (A) (A) (A) (A) (A) (A) (A) (A) (A) (A) (A)
                 (A) (A) (A) (A) (A) (A) (A) (A) (A) (A) (A) (A)
                 (A) (A) (A) (A) (A) (A) (A) (A) (A) (A) (A) (A)
                 (A) (A) (A) (A) (A) (A) (A) (A) (A) (A) (A) (A)
                 (A) (A) (A) (A) (A) (A) (A) (A) (A) (A) (A) (A)
                 (A) (A) (A) (A) (A) (A) (A) (A) (A) (A) (A) (A)
                 (A) (A) (A) (A) (A) (A) (A) (A) (A) (A) (A) (A)
                 (A) (A) (A) (A) (A) (A) (A) (A) (A) (A) (A) (A)
                 (A) (A) (A) (A) (A) (A) (A) (A) (A) (A) (A) (A)
                 (A) (A) (A) (A) (A) (A) (A) (A) (A) (A) (A) (A)
                 (A) (A) (A) (A) (A) (A) (A) (A) (A) (A) (A) (A)
                 (A) (A) (A) (A) (A) (A) (A) (A) (A) (A) (A) (A)
                 (A) (A) (A) (A) (A) (A) (A) (A) (A) (A) (A) (A)
                 (A) (A) (A) (A) (A) (A) (A) (A) (A) (A) (A) (A)
                 (A) (A) (A) (A) (A) (A) (A) (A) (A) (A) (A) (A)
                 (A) (A) (A) (A) (A) (A) (A) (A) (A) (A) (A) (A)
                 (A) (A) (A) (A) (A) (A) (A) (A) (A) (A) (A) (A)
                 (A) (A) (A) (A) (A) (A) (A) (A) (A) (A) (A) (A)
                 (A) (A) (A) (A) (A) (A) (A) (A) (A) (A) (A) (A)
                 (A) (A) (A) (A) (A) (A) (A) (A) (A) (A) (A) (A)
                 (A) (A) (A) (A) (A) (A) (A) (A) (A) (A) (A) (A)
                 (A) (A) (A) (A) (A) (A) (A) (A) (A) (A) (A) (A)
                 (A) (A) (A) (A) (A) (A) (A) (A) (A) (A) (A) (A)
                 (A) (A) (A) (A) (A) (A) (A) (A) (A) (A) (A) (A)
                 (A) (A) (A) (A) (A) (A) (A) (A) (A) (A) (A) (A)
                 (A) (A) (A) (A) (A) (A) (A) (A) (A) (A) (A) (A)
                 (A) (A) (A) (A) (A) (A) (A) (A) (A) (A) (A) (A)
                 (A) (A) (A) (A) (A) (A) (A) (A) (A) (A) (A) (A)
                 (A) (A) (A) (A) (A) (A) (A) (A) (A) (A) (A) (A)
                 (A) (A) (A) (A) (A) (A) (A) (A) (A) (A) (A) (A)
                 (A) (A) (A) (A) (A) (A) (A) (A) (A) (A) (A) (A)
                 (A) (A) (A) (A) (A) (A) (A) (A) (A) (A) (A) (A)
                 (A) (A) (A) (A) (A) (A) (A) (A) (A) (A) (A) (A)
                 (A) (A) (A) (A) (A) (A) (A) (A) (A) (A) (A) (A)
                 (A) (A) (A) (A) (A) (A) (A) (A) (A) (A) (A) (A)
                 (A) (A) (A) (A) (A) (A) (A) (A) (A) (A) (A) (A)
                 (A) (A) (A) (A) (A) (A) (A) (A) (A) (A) (A) (A)
                 (A) (A) (A) (A) (A) (A) (A) (A) (A) (A) (A) (A)
                 (A) (A) (A) (A) (A) (A) (A) (A) (A) (A) (A) (A)
                 (A) (A) (A) (A) (A) (A) (A) (A) (A) (A) (A) (A)
                 (A) (A) (A) (A) (A) (A) (A) (A) (A) (A) (A) (A)
                 (A) (A) (A) (A) (A) (A) (A) (A) (A) (A) (A) (A)
                 (A) (A) (A) (A) (A) (A) (A) (A) (A) (A) (A) (A)
                 (A) (A) (A) (A) (A) (A) (A) (A) (A) (A) (A) (A)
                 (A) (A) (A) (A) (A) (A) (A) (A) (A) (A) (A) (A)
                 (A) (A) (A) (A) (A) (A) (A) (A) (A) (A) (A) (A)
                 (A) (A) (A) (A) (A) (A) (A) (A) (A) (A) (A) (A)
                 (A) (A) (A) (A) (A) (A) (A) (A) (A) (A) (A) (A)
                 (A) (A) (A) (A) (A) (A) (A) (A) (A) (A) (A) (A)
                 (A) (A) (A) (A) (A) (A) (A) (A) (A) (A) (A) (A)
                 (A) (A) (A) (A) (A) (A) (A) (A) (A) (A) (A) (A)
                 (A) (A) (A) (A) (A) (A) (A) (A) (A) (A) (A) (A)
                 (A) (A) (A) (A) (A) (A) (A) (A) (A) (A) (A) (A)
                 (A) (A) (A) (A) (A) (A) (A) (A) (A) (A) (A) (A)
                 (A) (A) (A) (A) (A) (A) (A) (A) (A) (A) (A) (A)
                 (A) (A) (A) (A) (A) (A) (A) (A) (A) (A) (A) (A)
                 (A) (A) (A) (A) (A) (A) (A) (A) (A) (A) (A) (A)
                 (A) (A) (A) (A) (A) (A) (A) (A) (A) (A) (A) (A)
                 (A) (A) (A) (A) (A) (A) (A) (A) (A) (A) (A) (A)
                 (A) (A) (A) (A) (A) (A) (A) (A) (A) (A) (A) (A)
                 (A) (A) (A) (A) (A) (A) (A) (A) (A) (A) (A) (A)
                 (A) (A) (A) (A) (A) (A) (A) (A) (A) (A) (A) (A)
                 (A) (A) (A) (A) (A) (A) (A) (A) (A) (A) (A) (A)
                 (A) (A) (A) (A) (A) (A) (A) (A) (A) (A) (A) (A)
                 (A) (A) (A) (A) (A) (A) (A) (A) (A) (A) (A) (A)
                 (A) (A) (A) (A) (A) (A) (A) (A) (A) (A) (A) (A)
                 (A) (A) (A) (A) (A) (A) (A) (A) (A) (A) (A) (A)
                 (A) (A) (A) (A) (A) (A) (A) (A) (A) (A) (A) (A)
                 (A) (A) (A) (A) (A) (A) (A) (A) (A) (A) (A) (A)
                 (A) (A) (A) (A) (A) (A) (A) (A) (A) (A) (A) (A)
                 (A) (A) (A) (A) (A) (A) (A) (A) (A) (A) (A) (A)
                 (A) (A) (A) (A) (A) (A) (A) (A) (A) (A) (A) (A)
                 (A) (A) (A) (A) (A) (A) (A) (A) (A) (A) (A) (A)
                 (A) (A) (A) (A) (A) (A) (A) (A) (A) (A) (A) (A)
                 (A) (A) (A) (A) (A) (A) (A) (A) (A) (A) (A) (A)
                 (A) (A) (A) (A) (A) (A) (A) (A) (A) (A) (A) (A)
                 (A) (A) (A) (A) (A) (A) (A) (A) (A) (A) (A) (A)
                 (A) (A) (A) (A) (A) (A) (A) (A) (A) (A) (A) (A)
                 (A) (A) (A) (A) (A) (A) (A) (A) (A) (A) (A) (A)
                 (A) (A) (A) (A) (A) (A) (A) (A) (A) (A) (A) (A)
                 (A) (A) (A) (A) (A) (A) (A) (A) (A) (A) (A) (A)
                 (A) (A) (A) (A) (A) (A) (A) (A) (A) (A) (A) (A)
                 (A) (A) (A) (A) (A) (A) (A) (A) (A) (A) (A) (A)
                 (A) (A) (A) (A) (A) (A) (A) (A) (A) (A) (A) (A)
                 (A) (A) (A) (A) (A) (A) (A) (A) (A) (A) (A) (A)
                 (A) (A) (A) (A) (A) (A) (A) (A) (A) (A) (A) (A)
                 (A) (A) (A) (A) (A) (A) (A) (A) (A) (A) (A) (A)
                 (A) (A) (A) (A) (A) (A) (A) (A) (A) (A) (A) (A)
                 (A) (A) (A) (A) (A) (A) (A) (A) (A) (A) (A) (A)
                 (A) (A) (A) (A) (A) (A) (A) (A) (A) (A) (A) (A)
                 (A) (A) (A) (A) (A) (A) (A) (A) (A) (A) (A) (A)
                 (A) (A) (A) (A) (A) (A) (A) (A) (A) (A) (A) (A)
                 (A) (A) (A) (A) (A) (A) (A) (A) (A) (A) (A) (A)
                 (A) (A) (A) (A) (A) (A) (A) (A) (A) (A) (A) (A)
                 (A) (A) (A) (A) (A) (A) (A) (A) (A) (A) (A) (A)
                 (A) (A) (A) (A) (A) (A) (A) (A) (A) (A) (A) (A)
                 (A) (A) (A) (A) (A) (A) (A) (A) (A) (A) (A) (A)
                 (A) (A) (A) (A) (A) (A) (A) (A) (A) (A) (A) (A)
                 (A) (A) (A) (A) (A) (A) (A) (A) (A) (A) (A) (A)
                 (A) (A) (A) (A) (A) (A) (A) (A) (A) (A) (A) (A)
                 (A) (A) (A) (A) (A) (A) (A) (A) (A) (A) (A) (A)
                 (A) (A) (A) (A) (A) (A) (A) (A) (A) (A) (A) (A)
                 (A) (A) (A) (A) (A) (A) (A) (A) (A) (A) (A) (A)
                 (A) (A) (A) (A) (A) (A) (A) (A) (A) (A) (A) (A)
                 (A) (A) (A) (A) (A) (A) (A) (A) (A) (A) (A) (A)
[...]
 Alpha virt. eigenvalues --    3.02438   3.02502   3.02673   3.02921   3.03047
 Alpha virt. eigenvalues --    3.03447   3.03490   3.03643   3.04324   3.04482
 Alpha virt. eigenvalues --    3.04852   3.04916   3.05175   3.05322   3.06021
 Alpha virt. eigenvalues --    3.06067   3.06347   3.06505   3.07087   3.07334
 Alpha virt. eigenvalues --    3.07696   3.07780   3.08075   3.08482   3.08703
 Alpha virt. eigenvalues --    3.08938   3.09119   3.09501   3.10232   3.10277
 Alpha virt. eigenvalues --    3.10589   3.10733   3.11182   3.11445   3.11828
 Alpha virt. eigenvalues --    3.12015   3.12314   3.12844   3.13236   3.13517
 Alpha virt. eigenvalues --    3.13735   3.13910   3.14310   3.14809   3.14870
 Alpha virt. eigenvalues --    3.15098   3.15676   3.15770   3.16264   3.16458
 Alpha virt. eigenvalues --    3.16780   3.17000   3.17361   3.17818   3.18068
 Alpha virt. eigenvalues --    3.18321   3.18947   3.19424   3.19732   3.20166
 Alpha virt. eigenvalues --    3.20563   3.20722   3.21137   3.21385   3.21804
 Alpha virt. eigenvalues --    3.22596   3.23028   3.23299   3.23419   3.24090
 Alpha virt. eigenvalues --    3.24425   3.24947   3.25150   3.25575   3.25844
 Alpha virt. eigenvalues --    3.26018   3.26827   3.27151   3.27453   3.27867
 Alpha virt. eigenvalues --    3.28633   3.28962   3.29254   3.29438   3.29727
 Alpha virt. eigenvalues --    3.29942   3.30116   3.31023   3.31166   3.31697
 Alpha virt. eigenvalues --    3.32199   3.32302   3.32743   3.33247   3.33683
 Alpha virt. eigenvalues --    3.34249   3.34388   3.35402   3.35991   3.36848
 Alpha virt. eigenvalues --    3.37568   3.37616   3.38144   3.38397   3.39240
 Alpha virt. eigenvalues --    3.39671   3.39883   3.40392   3.40720   3.40782
 Alpha virt. eigenvalues --    3.41537   3.42167   3.42268   3.42642   3.43126
 Alpha virt. eigenvalues --    3.43393   3.43683   3.44070   3.44481   3.45391
 Alpha virt. eigenvalues --    3.45581   3.46559   3.46651   3.46797   3.47502
 Alpha virt. eigenvalues --    3.48953   3.49232   3.50524   3.51658   3.52151
 Alpha virt. eigenvalues --    3.52806   3.53210   3.53922   3.54251   3.54616
 Alpha virt. eigenvalues --    3.55003   3.56501   3.57114   3.57690   3.58867
 Alpha virt. eigenvalues --    3.59654   3.59834   3.61371   3.63155   3.63520
 Alpha virt. eigenvalues --    3.64313   3.64386   3.64977   3.65477   3.65568
 Alpha virt. eigenvalues --    3.66048   3.66347   3.66840   3.67386   3.67896
 Alpha virt. eigenvalues --    3.68895   3.69216   3.69646   3.71872   3.72680
 Alpha virt. eigenvalues --    3.74037   3.75022   3.75417   3.75909   3.76327
 Alpha virt. eigenvalues --    3.77545   3.79065   3.80832   3.81462   3.81600
 Alpha virt. eigenvalues --    3.81727   3.82370   3.82549   3.83213   3.83540
 Alpha virt. eigenvalues --    3.83780   3.84042   3.84624   3.84975   3.85126
 Alpha virt. eigenvalues --    3.85258   3.85697   3.85891   3.86136   3.86417
 Alpha virt. eigenvalues --    3.86915   3.87079   3.87305   3.87429   3.87593
 Alpha virt. eigenvalues --    3.87955   3.87962   3.88400   3.88723   3.88828
 Alpha virt. eigenvalues --    3.89099   3.89313   3.89779   3.90073   3.90367
 Alpha virt. eigenvalues --    3.90568   3.91487   3.92217   3.92376   3.93124
 Alpha virt. eigenvalues --    3.93578   3.93909   3.94273   3.95556   3.96058
 Alpha virt. eigenvalues --    3.98819   3.99293   4.01259   4.01479   4.04218
 Alpha virt. eigenvalues --    4.05770   4.06487   4.06695   4.07226   4.07555
 Alpha virt. eigenvalues --    4.07907   4.08628   4.08790   4.09592   4.11770
 Alpha virt. eigenvalues --    4.12903   4.13768   4.14423   4.15029   4.16459
 Alpha virt. eigenvalues --    4.17146   4.17774   4.21376   4.21723   4.21974
 Alpha virt. eigenvalues --    4.22193   4.22407   4.22561   4.23115   4.24539
 Alpha virt. eigenvalues --    4.25106   4.25396   4.25491   4.25868   4.26225
 Alpha virt. eigenvalues --    4.26646   4.27348   4.27520   4.28282   4.28633
 Alpha virt. eigenvalues --    4.28839   4.29710   4.30100   4.30271   4.30621
 Alpha virt. eigenvalues --    4.33781   4.34494   4.34895   4.35925   4.36944
 Alpha virt. eigenvalues --    4.37632   4.39047   4.39885   4.40642   4.40891
 Alpha virt. eigenvalues --    4.42185   4.42712   4.43988   4.46763   4.56747
 Alpha virt. eigenvalues --    4.81057   4.86402   4.86973   4.88858   4.89240
 Alpha virt. eigenvalues --    4.90071   4.90141   4.90283   4.91695   4.96228
 Alpha virt. eigenvalues --    4.96459   5.01163   5.03697   5.06368   5.11607
 Alpha virt. eigenvalues --    5.20897   5.21647   5.22253   5.30355   5.30596
 Alpha virt. eigenvalues --    5.31150   5.32291   5.35527   5.42181   5.43943
 Alpha virt. eigenvalues --    5.49747   5.56134   5.63396   5.67186   5.83516
 Alpha virt. eigenvalues --    5.86347   5.89442   5.91585   5.96878   6.00388
 Alpha virt. eigenvalues --    8.12014  17.54387  17.63116  17.64387  23.81172
 Alpha virt. eigenvalues --   23.81994  23.82796  23.82985  23.86003  23.88249
 Alpha virt. eigenvalues --   23.90671  23.97150  23.97891  23.98540  23.99067
 Alpha virt. eigenvalues --   23.99831  24.00177  24.01244  24.01454  24.01574
 Alpha virt. eigenvalues --   24.02635  24.03683  24.03835  24.04607  24.05106
 Alpha virt. eigenvalues --   24.06037  24.06276  24.08114  24.09899  24.10562
 Alpha virt. eigenvalues --   24.10641  24.10730  24.11123  24.11433  24.12033
 Alpha virt. eigenvalues --   24.12130  24.12286  24.12562  24.12685  24.12920
 Alpha virt. eigenvalues --   24.13263  24.13649  24.14062  24.14697  24.15245
 Alpha virt. eigenvalues --   24.15489  24.15739  24.16288  24.16586  24.16878
 Alpha virt. eigenvalues --   24.17921  24.17990  24.18147  24.19194  24.19996
 Alpha virt. eigenvalues --   24.20689  24.21060  24.21253  24.21450  24.21759
 Alpha virt. eigenvalues --   24.22231  24.22689  24.22953  24.23605  24.23839
 Alpha virt. eigenvalues --   24.29150  24.29660  24.30190  24.30702  24.30849
 Alpha virt. eigenvalues --   24.31427  24.91680  35.71593  35.77050  35.78964
 Alpha virt. eigenvalues --   35.84138  35.84773  35.87099  50.11664  50.13601
 Alpha virt. eigenvalues --   50.14741  50.19762  50.20360  50.22896 189.50979
          Condensed to atoms (all electrons):
 Mulliken charges:
               1
     1  C    0.327858
     2  C    0.187061
     3  H    0.352895
     4  C   -0.770392
     5  H    0.248331
     6  H    0.267431
     7  N    0.932573
     8  H   -0.157957
     9  C   -0.072815
    10  C   -0.031102
    11  C   -0.008754
    12  C    0.031207
    13  C   -0.171084
    14  H    0.091395
    15  H    0.328809
    16  C   -0.485735
    17  H    0.254826
    18  C   -0.397262
    19  H    0.240961
    20  C   -1.013301
    21  H    0.247451
    22  H    0.290884
    23  C    0.188050
    24  H   -0.249268
    25  H    0.440352
    26  H    0.381645
    27  C    1.186462
    28  C   -1.050594
    29  H    0.230503
    30  H    0.171648
    31  H    0.182561
    32  C   -0.184224
    33  H    0.215731
    34  H    0.182190
    35  C   -0.745096
    36  H    0.208694
    37  H    0.174936
    38  H    0.181866
    39  C   -1.052662
    40  C   -0.129839
    41  H    0.219633
    42  H    0.282523
    43  C   -0.442900
    44  H    0.237535
    45  H    0.279359
    46  C   -0.472469
    47  O   -0.091527
    48  N    0.015676
    49  H    0.272647
    50  H   -0.436628
    51  C   -1.080152
    52  C   -0.249452
    53  H    0.227990
    54  H    0.194570
    55  C    0.898744
    56  C   -0.779387
    57  H    0.249851
    58  C   -0.294773
    59  H    0.238579
    60  C    0.069134
    61  O    0.012331
    62  H    0.307856
    63  C   -0.270844
    64  H   -0.191857
    65  C   -0.391550
    66  H    0.391808
    67  C   -1.182483
    68  C   -0.120703
    69  H   -0.035462
    70  H    0.313192
    71  C    0.457610
    72  C   -0.477231
    73  H    0.237797
    74  C   -0.662848
    75  H    0.251449
    76  C   -0.373405
    77  H    0.235645
    78  C   -0.045677
    79  H    0.500230
    80  C    0.186294
    81  H   -0.013815
    82  C   -0.943520
    83  C   -0.161139
    84  H   -0.154477
    85  H    0.323370
    86  S    0.236433
    87  C   -1.771594
    88  H    0.294716
    89  H    0.301483
    90  C    1.324564
    91  C   -0.671156
    92  C   -0.546452
    93  H    0.302962
    94  C   -0.264879
    95  C   -0.741845
    96  H    0.263457
    97  H    0.209021
    98  H    0.214604
    99  C    0.134585
   100  H    0.333760
   101  C   -0.675444
   102  N    0.791660
   103  C   -1.635964
   104  C    0.442628
   105  O   -0.054049
   106  N   -0.091561
   107  H    0.500709
   108  C   -0.228363
   109  O   -0.200633
   110  N    0.127676
   111  C   -0.112368
   112  N    0.568693
   113  C   -0.381072
   114  C   -1.129495
   115  C    0.146064
   116  H    0.449812
   117  H   -0.029614
   118  C    0.141540
   119  C    0.350655
   120  H   -0.096596
   121  C   -0.258399
   122  H    0.550194
   123  C   -0.793250
   124  O   -0.036651
   125  H    0.303646
   126  C   -0.163268
   127  H    0.237280
   128  C   -0.254884
   129  H    0.258942
   130  C   -0.230214
   131  C   -1.115909
   132  H    0.212376
   133  H    0.259872
   134  C    0.500611
   135  C   -0.580301
   136  H    0.269225
   137  C    0.163291
   138  H    0.287518
   139  C   -0.683574
   140  O    0.126133
   141  H    0.371849
   142  C   -0.028952
   143  H    0.253657
   144  C   -0.313698
   145  H    0.291613
   146  H    0.198728
   147  H    0.197782
   148  H    0.227791
   149  H    0.220210
   150  H    0.289224
   151  H    0.244172
   152  H    0.230187
   153  H    0.214809
   154  H    0.216295
   155  H    0.189055
   156  H    0.195010
   157  H    0.195608
   158  C   -0.812899
   159  H   -0.519756
   160  H    0.221398
   161  H    0.174683
   162  H    0.246215
   163  H    0.216764
   164  H   -0.212986
   165  H    0.242033
   166  H    0.221420
   167  H    0.184656
   168  H    0.150811
   169  H    0.170209
   170  H    0.230140
   171  H    0.179633
 Sum of Mulliken charges =  -0.00000
 Mulliken charges with hydrogens summed into heavy atoms:
               1
     1  C    0.327858
     2  C    0.539957
     4  C   -0.522061
     7  N    0.774616
     9  C    0.308830
    10  C   -0.031102
    11  C    0.082640
    12  C    0.031207
    13  C    0.157725
    16  C   -0.230909
    18  C   -0.156301
    20  C   -0.474966
    23  C    0.379134
    27  C    0.666706
    28  C   -0.465881
    32  C    0.213697
    35  C   -0.179601
    39  C   -0.495776
    40  C    0.372317
    43  C    0.073994
    46  C   -0.472469
    47  O   -0.091527
    48  N   -0.148304
    51  C   -0.500479
    52  C    0.173108
    55  C    0.898744
    56  C   -0.529536
    58  C   -0.056194
    60  C    0.069134
    61  O    0.320187
    63  C   -0.462701
    65  C    0.000258
    67  C   -0.521192
    68  C    0.157027
    71  C    0.457610
    72  C   -0.239434
    74  C   -0.411399
    76  C   -0.137760
    78  C    0.454553
    80  C    0.172478
    82  C   -0.319219
    83  C    0.007754
    86  S    0.236433
    87  C   -1.175396
    90  C    1.324564
    91  C   -0.368194
    92  C   -0.546452
    94  C   -0.264879
    95  C   -0.054763
    99  C    0.468345
   101  C   -0.675444
   102  N    1.059091
   103  C   -1.635964
   104  C    0.442628
   105  O   -0.054049
   106  N    0.409148
   108  C   -0.228363
   109  O   -0.200633
   110  N    0.127676
   111  C   -0.112368
   112  N    0.568693
   113  C    0.372534
   114  C   -0.549513
   115  C    0.566262
   118  C    0.141540
   119  C    0.254060
   121  C    0.291795
   123  C   -0.793250
   124  O    0.266995
   126  C    0.074012
   128  C    0.004058
   130  C    0.015596
   131  C   -0.643660
   134  C    0.500611
   135  C   -0.311076
   137  C    0.450809
   139  C   -0.683574
   140  O    0.497982
   142  C    0.224705
   144  C   -0.022085
   158  C   -0.170602
 Electronic spatial extent (au):  <R**2>=          65725.4938
 Charge=              0.0000 electrons
 Dipole moment (field-independent basis, Debye):
    X=              0.6912    Y=             12.6712    Z=              6.5808  Tot=             14.2949
 Quadrupole moment (field-independent basis, Debye-Ang):
   XX=           -478.1783   YY=           -516.5983   ZZ=           -486.6349
   XY=             15.2443   XZ=             23.9181   YZ=             -5.8316
 Traceless Quadrupole moment (field-independent basis, Debye-Ang):
   XX=             15.6256   YY=            -22.7945   ZZ=              7.1689
   XY=             15.2443   XZ=             23.9181   YZ=             -5.8316
 Octapole moment (field-independent basis, Debye-Ang**2):
  XXX=            198.8859  YYY=            384.5287  ZZZ=             86.5063  XYY=            -76.6757
  XXY=             64.6934  XXZ=            -62.7834  XZZ=             29.0648  YZZ=            143.0978
  YYZ=            148.6171  XYZ=             46.5368
 Hexadecapole moment (field-independent basis, Debye-Ang**3):
 XXXX=         -46640.9271 YYYY=         -30779.7508 ZZZZ=         -14507.6912 XXXY=              1.8295
 XXXZ=           1456.4744 YYYX=            413.5091 YYYZ=           -379.1283 ZZZX=           -208.9747
 ZZZY=            149.2280 XXYY=         -12086.8719 XXZZ=          -9964.3121 YYZZ=          -7706.8759
 XXYZ=            393.4425 YYXZ=            222.0591 ZZXY=            -15.5662
 N-N= 1.651014503206D+04 E-N=-4.193100676602D+04  KE= 3.805095375495D+03
 Leave Link  601 at Mon Apr  4 13:02:31 2022, MaxMem=  4294967296 cpu:             176.4 elap:               3.6
 (Enter /share/apps/g16/l9999.exe)
 1\1\GINC-COMPUTE-0-6\SP\RPBE1PBE\6-311++G(d,p)\C68H90N6O6S1\RVIANELLO\
 04-Apr-2022\0\\#p PBE1PBE/6-311++G(d,p) scrf=(CPCM,solvent=water,Read)
  scf=(XQC,Tight)\\optimisation\\0,1\C,0,-0.675072,-0.659571,0.302381\C
 ,0,-1.083674,-1.692198,-0.383693\H,0,-1.121332,-2.698032,0.040754\C,0,
 -0.274098,0.410749,0.953611\H,0,-1.004594,0.994034,1.511739\H,0,-1.310
 368,0.45913,-2.189211\N,0,1.016005,0.93109,0.97896\H,0,1.709779,0.3706
 34,0.491305\C,0,1.482164,1.553503,2.215887\C,0,2.876373,1.113634,2.610
 576\C,0,3.42105,-0.165645,2.568985\C,0,3.622587,2.200682,3.071517\C,0,
 4.745242,-0.345153,2.973001\H,0,2.8264,-1.015018,2.235205\H,0,5.185,-1
 .337131,2.963522\C,0,5.510133,0.744893,3.396956\H,0,6.543521,0.59226,3
 .693755\C,0,4.950025,2.02504,3.455166\H,0,5.543193,2.868633,3.798715\C
 ,0,2.776619,3.452551,3.087152\H,0,2.411387,3.63336,4.106297\H,0,3.3228
 88,4.345539,2.771091\C,0,1.615755,3.092371,2.139608\H,0,1.881169,3.353
 639,1.107798\H,0,0.680964,3.599785,2.394882\H,0,0.783656,1.281837,3.02
 1188\C,0,6.099196,-2.80808,0.817061\C,0,5.897743,-3.829121,-0.301995\H
 ,0,6.864671,-4.147102,-0.712299\H,0,5.365632,-4.717007,0.051566\H,0,5.
 306202,-3.404466,-1.12033\C,0,6.855851,-3.406311,2.009389\H,0,7.830345
 ,-3.776799,1.660956\H,0,7.077652,-2.602944,2.72616\C,0,6.098144,-4.522
 111,2.726744\H,0,6.627713,-4.843692,3.62826\H,0,5.099369,-4.181597,3.0
 25073\H,0,5.970195,-5.400392,2.087614\C,0,6.152099,-1.2288,-3.407159\C
 ,0,5.0993,-0.142608,-3.198914\H,0,5.300068,0.407515,-2.269892\H,0,5.16
 6131,0.594243,-4.006094\C,0,3.673504,-0.707917,-3.184203\H,0,2.932134,
 0.096605,-3.194539\H,0,3.495694,-1.321856,-4.071438\C,0,3.379945,-1.58
 1319,-1.982799\O,0,3.016688,-2.764289,-2.104516\N,0,3.530952,-1.015828
 ,-0.769258\H,0,3.996038,-0.122073,-0.625738\H,0,3.382107,-1.602577,0.0
 4707\C,0,3.400071,7.08587,-2.556411\C,0,2.540318,6.40919,-1.483377\H,0
 ,2.427834,7.081497,-0.624699\H,0,1.533034,6.229274,-1.877758\C,0,3.137
 222,5.098997,-1.027646\C,0,4.103353,5.052963,-0.018858\H,0,4.40553,5.9
 74029,0.474905\C,0,4.695148,3.852316,0.365148\H,0,5.450407,3.831938,1.
 146585\C,0,4.299282,2.66482,-0.247826\O,0,4.846686,1.451967,0.083893\H
 ,0,5.216616,1.477469,0.985372\C,0,3.334875,2.68546,-1.25357\H,0,3.0108
 9,1.752142,-1.706825\C,0,2.774179,3.89743,-1.64232\H,0,2.021476,3.9067
 95,-2.426098\C,0,-0.354632,5.498215,0.568076\C,0,-1.294972,4.324712,0.
 277979\H,0,-1.022348,3.467572,0.905323\H,0,-2.316983,4.604303,0.55955\
 C,0,-1.258324,3.91303,-1.172568\C,0,-2.044312,4.57573,-2.121404\H,0,-2
 .698727,5.383132,-1.798073\C,0,-2.010402,4.207161,-3.465452\H,0,-2.638
 432,4.724922,-4.184244\C,0,-1.175895,3.171884,-3.88359\H,0,-1.151214,2
 .877655,-4.928138\C,0,-0.371753,2.516697,-2.951148\H,0,0.281194,1.7051
 22,-3.265727\C,0,-0.416674,2.88175,-1.603694\H,0,0.21353,2.367919,-0.8
 77283\C,0,-6.621041,1.316184,3.3212\C,0,-6.871968,1.585154,1.843902\H,
 0,-5.922886,1.773944,1.336831\H,0,-7.520225,2.456208,1.704766\S,0,-7.6
 49131,0.140533,1.049697\C,0,-7.366001,0.572715,-0.71147\H,0,-7.732964,
 1.588042,-0.880509\H,0,-8.018164,-0.10555,-1.268912\C,0,-5.933589,0.40
 7905,-1.153471\C,0,-5.446198,-0.892271,-1.326024\C,0,-4.134988,-1.1320
 31,-1.721014\H,0,-6.12133,-1.724353,-1.151342\C,0,-5.082777,1.499228,-
 1.394889\C,0,-5.55744,2.931663,-1.316231\H,0,-6.302717,3.144043,-2.090
 937\H,0,-6.017951,3.169612,-0.352378\H,0,-4.716972,3.614967,-1.465711\
 C,0,-3.753444,1.250633,-1.747193\H,0,-3.076139,2.083148,-1.921928\C,0,
 -3.263398,-0.043745,-1.897625\N,0,-1.966806,-0.307721,-2.315184\C,0,-1
 .416443,-1.569217,-1.889716\C,0,-0.065658,-1.730274,-2.572423\O,0,0.67
 7447,-0.775959,-2.713679\N,0,0.257933,-3.008219,-2.899424\H,0,1.238528
 ,-3.198147,-3.109675\C,0,-0.631003,-4.100952,-2.887765\O,0,-0.193018,-
 5.205462,-3.143318\N,0,-1.967542,-3.873861,-2.627629\C,0,-2.364135,-2.
 694477,-2.245943\N,0,-3.674794,-2.437274,-2.043227\C,0,-4.671557,-3.48
 2939,-2.2663\C,0,-4.586389,-2.442502,2.972001\C,0,-3.420188,-1.85384,2
 .174132\H,0,-2.516148,-2.456935,2.33084\H,0,-3.645568,-1.908235,1.1017
 13\C,0,-3.137921,-0.412793,2.519986\C,0,-3.580568,0.608044,1.676516\H,
 0,-4.124364,0.342681,0.773679\C,0,-3.328737,1.948523,1.953221\H,0,-3.6
 62914,2.732268,1.277902\C,0,-2.616314,2.292306,3.103284\O,0,-2.370886,
 3.615877,3.326897\H,0,-1.879773,3.715418,4.156315\C,0,-2.173597,1.2873
 58,3.968285\H,0,-1.616517,1.55189,4.864193\C,0,-2.436071,-0.048857,3.6
 72238\H,0,-2.070948,-0.821524,4.345349\C,0,-3.419507,-5.044055,0.48050
 1\C,0,-2.431332,-5.489984,1.561928\H,0,-2.763215,-5.121893,2.540274\H,
 0,-2.435363,-6.585521,1.623779\C,0,-1.02808,-4.993567,1.297211\C,0,-0.
 3363,-4.221376,2.234819\H,0,-0.805692,-3.998175,3.190555\C,0,0.938056,
 -3.722928,1.9735\H,0,1.464225,-3.119567,2.707039\C,0,1.547567,-3.99819
 ,0.75108\O,0,2.796829,-3.506421,0.5105\H,0,2.951092,-3.510744,-0.46589
 9\C,0,0.8843,-4.785961,-0.192211\H,0,1.361488,-5.01309,-1.141936\C,0,-
 0.38895,-5.272017,0.083493\H,0,-0.889502,-5.869466,-0.674839\H,0,-6.19
 0722,2.205754,3.790857\H,0,-5.913643,0.490858,3.447442\H,0,-7.548487,1
 .067058,3.845728\H,0,-5.155783,-3.74786,-1.322608\H,0,-4.166586,-4.354
 947,-2.672071\H,0,-5.422288,-3.117472,-2.97093\H,0,0.680171,5.232566,0
 .325881\H,0,-0.400516,5.780766,1.624844\H,0,-0.628604,6.371759,-0.0334
 07\H,0,3.501648,6.437511,-3.432282\H,0,4.404577,7.291224,-2.173009\H,0
 ,2.955977,8.031991,-2.879091\C,0,6.815864,-1.560981,0.300206\H,0,5.100
 658,-2.51463,1.171519\H,0,7.808036,-1.821393,-0.089398\H,0,6.951397,-0
 .821605,1.098696\H,0,6.251947,-1.081565,-0.506885\H,0,-3.141093,-5.441
 093,-0.500899\H,0,-3.426988,-3.951042,0.397846\H,0,-4.435806,-5.381166
 ,0.709403\H,0,7.162287,-0.810069,-3.38861\H,0,6.005752,-1.725935,-4.37
 1532\H,0,6.096501,-1.996151,-2.627684\H,0,-5.508701,-1.888473,2.76693\
 H,0,-4.390558,-2.390563,4.048223\H,0,-4.753098,-3.491774,2.705514\\Ver
 sion=ES64L-G16RevB.01\State=1-A\HF=-3820.2951975\RMSD=2.567e-09\Dipole
 =0.2719303,4.9852524,2.5890919\Quadrupole=11.6172425,-16.9471463,5.329
 9037,11.3337671,17.7825289,-4.3356306\PG=C01 [X(C68H90N6O6S1)]\\@


 I WANT IT ALL - RICH, THIN, AND CHOCOLATE.
 Job cpu time:       6 days  2 hours 59 minutes  2.1 seconds.
 Elapsed time:       0 days  2 hours 18 minutes 48.8 seconds.
 File lengths (MBytes):  RWF=   3649 Int=      0 D2E=      0 Chk=    337 Scr=      1
 Normal termination of Gaussian 16 at Mon Apr  4 13:02:32 2022.
