 Entering Gaussian System, Link 0=g16
 Input=ras-n-k1-scan1-ts1-irc-f-opt-scan1-ts1-irc-r-opt-scan1-ts1-irc-r-opt.com
 Output=ras-n-k1-scan1-ts1-irc-f-opt-scan1-ts1-irc-r-opt-scan1-ts1-irc-r-opt.log
 Initial command:
 /share/apps/g16/l1.exe "/state/partition1/Gau-112038.inp" -scrdir="/state/partition1/"
 Entering Link 1 = /share/apps/g16/l1.exe PID=    112041.
  
 Copyright (c) 1988-2017, Gaussian, Inc.  All Rights Reserved.
  
 This is part of the Gaussian(R) 16 program.  It is based on
 the Gaussian(R) 09 system (copyright 2009, Gaussian, Inc.),
 the Gaussian(R) 03 system (copyright 2003, Gaussian, Inc.),
 the Gaussian(R) 98 system (copyright 1998, Gaussian, Inc.),
 the Gaussian(R) 94 system (copyright 1995, Gaussian, Inc.),
 the Gaussian 92(TM) system (copyright 1992, Gaussian, Inc.),
 the Gaussian 90(TM) system (copyright 1990, Gaussian, Inc.),
 the Gaussian 88(TM) system (copyright 1988, Gaussian, Inc.),
 the Gaussian 86(TM) system (copyright 1986, Carnegie Mellon
 University), and the Gaussian 82(TM) system (copyright 1983,
 Carnegie Mellon University). Gaussian is a federally registered
 trademark of Gaussian, Inc.
  
 This software contains proprietary and confidential information,
 including trade secrets, belonging to Gaussian, Inc.
  
 This software is provided under written license and may be
 used, copied, transmitted, or stored only in accord with that
 written license.
  
 The following legend is applicable only to US Government
 contracts under FAR:
  
                    RESTRICTED RIGHTS LEGEND
  
 Use, reproduction and disclosure by the US Government is
 subject to restrictions as set forth in subparagraphs (a)
 and (c) of the Commercial Computer Software - Restricted
 Rights clause in FAR 52.227-19.
  
 Gaussian, Inc.
 340 Quinnipiac St., Bldg. 40, Wallingford CT 06492
  
  
 ---------------------------------------------------------------
 Warning -- This program may not be used in any manner that
 competes with the business of Gaussian, Inc. or will provide
 assistance to any competitor of Gaussian, Inc.  The licensee
 of this program is prohibited from giving any competitor of
 Gaussian, Inc. access to this program.  By using this program,
 the user acknowledges that Gaussian, Inc. is engaged in the
 business of creating and licensing software in the field of
 computational chemistry and represents and warrants to the
 licensee that it is not a competitor of Gaussian, Inc. and that
 it will not use this program in any manner prohibited above.
 ---------------------------------------------------------------
  

 Cite this work as:
 Gaussian 16, Revision B.01,
 M. J. Frisch, G. W. Trucks, H. B. Schlegel, G. E. Scuseria, 
 M. A. Robb, J. R. Cheeseman, G. Scalmani, V. Barone, 
 G. A. Petersson, H. Nakatsuji, X. Li, M. Caricato, A. V. Marenich, 
 J. Bloino, B. G. Janesko, R. Gomperts, B. Mennucci, H. P. Hratchian, 
 J. V. Ortiz, A. F. Izmaylov, J. L. Sonnenberg, D. Williams-Young, 
 F. Ding, F. Lipparini, F. Egidi, J. Goings, B. Peng, A. Petrone, 
 T. Henderson, D. Ranasinghe, V. G. Zakrzewski, J. Gao, N. Rega, 
 G. Zheng, W. Liang, M. Hada, M. Ehara, K. Toyota, R. Fukuda, 
 J. Hasegawa, M. Ishida, T. Nakajima, Y. Honda, O. Kitao, H. Nakai, 
 T. Vreven, K. Throssell, J. A. Montgomery, Jr., J. E. Peralta, 
 F. Ogliaro, M. J. Bearpark, J. J. Heyd, E. N. Brothers, K. N. Kudin, 
 V. N. Staroverov, T. A. Keith, R. Kobayashi, J. Normand, 
 K. Raghavachari, A. P. Rendell, J. C. Burant, S. S. Iyengar, 
 J. Tomasi, M. Cossi, J. M. Millam, M. Klene, C. Adamo, R. Cammi, 
 J. W. Ochterski, R. L. Martin, K. Morokuma, O. Farkas, 
 J. B. Foresman, and D. J. Fox, Gaussian, Inc., Wallingford CT, 2016.
 
 ******************************************
 Gaussian 16:  ES64L-G16RevB.01 20-Dec-2017
                 4-Apr-2022 
 ******************************************
 %mem=32GB
 %nproc=64
 Will use up to   64 processors via shared memory.
 ----------------------------------------------------------------------
 #p PBE1PBE/6-311++G(d,p) scrf=(CPCM,solvent=water,Read) scf=(XQC,Tight
 )
 ----------------------------------------------------------------------
 1/38=1,40=2,172=1/1;
 2/12=2,17=6,18=5,40=1/2;
 3/5=4,6=6,7=1111,11=2,25=1,30=1,70=2103,72=1,74=-13/1,2,3;
 4//1;
 5/5=2,8=3,13=1,32=2,38=5,53=1/2,8;
 6/7=2,8=2,9=2,10=2,28=1/1;
 99/5=1,9=1/99;
 Leave Link    1 at Mon Apr  4 00:12:56 2022, MaxMem=  4294967296 cpu:               3.8 elap:               0.1
 (Enter /share/apps/g16/l101.exe)
 ------------
 optimisation
 ------------
 Symbolic Z-matrix:
 Charge =  0 Multiplicity = 1
 6                    0     0.17795  -0.08787   0.10711 
 6                    0     1.4911    0.13763   0.49223 
 1                    0     1.97813   1.04927   0.15835 
 6                    0    -0.36504   0.79575  -0.81817 
 1                    0     0.23503   1.61868  -1.21142 
 1                    0    -0.40898  -0.91469   0.48227 
 7                    0    -1.58912   0.70488  -1.29336 
 1                    0    -2.17842  -0.06019  -0.94798 
 6                    0    -2.1331    1.6257   -2.28289 
 6                    0    -3.59161   1.35739  -2.56899 
 6                    0    -4.24533   0.13186  -2.65247 
 6                    0    -4.27351   2.56048  -2.75039 
 6                    0    -5.61863   0.12563  -2.90896 
 1                    0    -3.70795  -0.8026   -2.49678 
 1                    0    -6.15002  -0.82044  -2.9687 
 6                    0    -6.30526   1.32724  -3.1045 
 1                    0    -7.37146   1.30808  -3.30758 
 6                    0    -5.63569   2.55032  -3.03425 
 1                    0    -6.17886   3.48129  -3.17134 
 6                    0    -3.34126   3.73545  -2.557 
 1                    0    -3.04962   4.15757  -3.52693 
 1                    0    -3.79618   4.54054  -1.97145 
 6                    0    -2.13011   3.10489  -1.83613 
 1                    0    -2.28814   3.12973  -0.7509 
 1                    0    -1.186     3.61212  -2.059 
 1                    0    -1.55154   1.5081   -3.2089 
 6                    0    -5.29882  -3.40626  -1.36944 
 6                    0    -4.48842  -4.65101  -1.00421 
 1                    0    -5.12609  -5.38206  -0.49081 
 1                    0    -4.05933  -5.13541  -1.88646 
 1                    0    -3.66609  -4.39234  -0.32962 
 6                    0    -6.53463  -3.75083  -2.20858 
 1                    0    -7.15886  -4.4555   -1.64103 
 1                    0    -7.14281  -2.84488  -2.33823 
 6                    0    -6.20768  -4.33629  -3.58055 
 1                    0    -7.11575  -4.50127  -4.1678 
 1                    0    -5.56014  -3.65637  -4.1463 
 1                    0    -5.68942  -5.29589  -3.49502 
 6                    0    -4.83557  -3.85515   4.83355 
 6                    0    -3.53     -3.16583   5.22437 
 1                    0    -3.72112  -2.12144   5.49991 
 1                    0    -3.11653  -3.63616   6.12225 
 6                    0    -2.46992  -3.24652   4.12242 
 1                    0    -1.53845  -2.75598   4.43158 
 1                    0    -2.23996  -4.29549   3.90914 
 6                    0    -2.85206  -2.6107    2.80099 
 8                    0    -2.55242  -3.15304   1.72456 
 7                    0    -3.51921  -1.45183   2.85086 
 1                    0    -3.68694  -0.98137   3.72787 
 1                    0    -3.71604  -0.95228   1.98617 
 6                    0    -4.73311   5.68954   3.34017 
 6                    0    -3.78947   5.49164   2.14902 
 1                    0    -4.07122   6.17591   1.33943 
 1                    0    -2.7659    5.75152   2.44332 
 6                    0    -3.8108    4.06824   1.64545 
 6                    0    -4.82794   3.61849   0.79809 
 1                    0    -5.58987   4.31596   0.45591 
 6                    0    -4.88986   2.29045   0.38608 
 1                    0    -5.68076   1.9475   -0.27772 
 6                    0    -3.90787   1.39975   0.81092 
 8                    0    -3.90516   0.08311   0.41561 
 1                    0    -4.61449  -0.07672  -0.23126 
 6                    0    -2.8762    1.82042   1.64728 
 1                    0    -2.10341   1.11505   1.94685 
 6                    0    -2.84323   3.14884   2.06275 
 1                    0    -2.04129   3.48131   2.71746 
 6                    0    -1.10566   6.0633   -0.10925 
 6                    0     0.26625   5.43694   0.16009 
 1                    0     0.51284   4.74549  -0.65373 
 1                    0     1.03131   6.22337   0.14398 
 6                    0     0.32477   4.69318   1.47422 
 6                    0     0.16188   5.3579    2.69473 
 1                    0     0.01444   6.43592   2.70295 
 6                    0     0.19277   4.65605   3.89819 
 1                    0     0.06848   5.18916   4.83613 
 6                    0     0.38264   3.27327   3.90287 
 1                    0     0.39982   2.72814   4.84133 
 6                    0     0.54313   2.5958    2.69542 
 1                    0     0.66402   1.5137    2.68611 
 6                    0     0.51882   3.31104   1.49807 
 1                    0     0.63726   2.79259   0.55181 
 6                    0     8.01966   1.72396  -2.6793 
 6                    0     7.71116   1.74808  -1.18719 
 1                    0     6.63254   1.66072  -1.01559 
 1                    0     8.05909   2.6827   -0.73629 
 16                   0     8.54787   0.35076  -0.3705 
 6                    0     7.85725   0.49995   1.31961 
 1                    0     8.1155    1.48209   1.721 
 1                    0     8.40094  -0.24782   1.90369 
 6                    0     6.37306   0.23804   1.37713 
 6                    0     5.93253  -1.0756    1.19587 
 6                    0     4.57578  -1.40137   1.17018 
 1                    0     6.67708  -1.84738   1.03472 
 6                    0     5.44896   1.27289   1.58648 
 6                    0     5.86767   2.70096   1.83977 
 1                    0     6.45826   2.79089   2.75762 
 1                    0     6.47465   3.10061   1.02115 
 1                    0     4.98917   3.34187   1.94534 
 6                    0     4.09006   0.9461    1.58049 
 1                    0     3.34901   1.72238   1.76027 
 6                    0     3.65894  -0.35064   1.34599 
 7                    0     2.28022  -0.66878   1.19419 
 6                    0     1.91595  -1.98844   1.574 
 6                    0     0.68699  -2.2691    2.23147 
 8                    0    -0.12693  -1.44155   2.67092 
 7                    0     0.44595  -3.63297   2.33956 
 1                    0    -0.51115  -3.89495   2.55286 
 6                    0     1.24738  -4.65075   1.81372 
 8                    0     0.78662  -5.78889   1.74369 
 7                    0     2.51795  -4.32171   1.43453 
 6                    0     2.81416  -3.03666   1.32207 
 7                    0     4.11641  -2.70164   0.94496 
 6                    0     5.09923  -3.75278   0.72668 
 6                    0     4.79749  -0.56466  -2.13284 
 6                    0     3.28321  -0.60357  -2.34652 
 1                    0     3.0455   -1.26561  -3.18789 
 1                    0     2.80321  -1.06593  -1.46952 
 6                    0     2.66438   0.75401  -2.60811 
 6                    0     3.05189   1.8921   -1.88731 
 1                    0     3.83763   1.81546  -1.13779 
 6                    0     2.44839   3.12981  -2.08933 
 1                    0     2.75694   4.00404  -1.52404 
 6                    0     1.44985   3.2633   -3.05689 
 8                    0     0.8982    4.49951  -3.22634 
 1                    0     0.25693   4.47242  -3.95321 
 6                    0     1.06093   2.15053  -3.80298 
 1                    0     0.30218   2.2532   -4.57563 
 6                    0     1.66212   0.91373  -3.56812 
 1                    0     1.34318   0.05491  -4.1533 
 6                    0     3.4418   -4.39857  -2.10706 
 6                    0     2.27002  -4.43528  -3.09117 
 1                    0     2.53127  -3.88983  -4.00562 
 1                    0     2.08667  -5.47491  -3.39102 
 6                    0     1.01213  -3.8421   -2.4995 
 6                    0     0.35338  -2.77248  -3.10817 
 1                    0     0.73507  -2.37983  -4.04859 
 6                    0    -0.78351  -2.19851  -2.54412 
 1                    0    -1.27707  -1.3583   -3.02507 
 6                    0    -1.27891  -2.69208  -1.33747 
 8                    0    -2.35722  -2.06618  -0.77429 
 1                    0    -2.50767  -2.4208    0.13977 
 6                    0    -0.65703  -3.78576  -0.72887 
 1                    0    -1.05376  -4.18744   0.19849 
 6                    0     0.47604  -4.34532  -1.30909 
 1                    0     0.94653  -5.18859  -0.80863 
 1                    0     7.51527   2.55536  -3.17907 
 1                    0     7.67598   0.79044  -3.13353 
 1                    0     9.09413   1.81788  -2.86072 
 1                    0     5.7037   -3.51301  -0.153 
 1                    0     4.56633  -4.68477   0.56616 
 1                    0     5.75659  -3.86292   1.5971 
 1                    0    -1.89483   5.30579  -0.04857 
 1                    0    -1.13416   6.51594  -1.10562 
 1                    0    -1.33702   6.84226   0.62459 
 1                    0    -4.44755   5.03324   4.16822 
 1                    0    -5.76414   5.44865   3.06206 
 1                    0    -4.70756   6.7234    3.69675 
 6                    0    -5.70268  -2.65284  -0.10322 
 1                    0    -4.65078  -2.74783  -1.96648 
 1                    0    -6.36997  -3.26627   0.5152 
 1                    0    -6.23942  -1.72484  -0.34256 
 1                    0    -4.8235   -2.41006   0.50313 
 1                    0     3.20517  -4.97045  -1.20456 
 1                    0     3.64876  -3.36983  -1.7896 
 1                    0     4.35089  -4.8153   -2.55215 
 1                    0    -5.56536  -3.80908   5.64632 
 1                    0    -4.6581   -4.90916   4.59662 
 1                    0    -5.2822   -3.38331   3.95191 
 1                    0     5.06562   0.01899  -1.24595 
 1                    0     5.3013   -0.12369  -2.99936 
 1                    0     5.19261  -1.57456  -1.98029 
 
 ITRead=  0  0  0  0  0  0  0  0  0  0  0  0  0  0  0  0  0  0  0  0
 ITRead=  0  0  0  0  0  0  0  0  0  0  0  0  0  0  0  0  0  0  0  0
 ITRead=  0  0  0  0  0  0  0  0  0  0  0  0  0  0  0  0  0  0  0  0
 ITRead=  0  0  0  0  0  0  0  0  0  0  0  0  0  0  0  0  0  0  0  0
 ITRead=  0  0  0  0  0  0  0  0  0  0  0  0  0  0  0  0  0  0  0  0
 ITRead=  0  0  0  0  0  0  0  0  0  0  0  0  0  0  0  0  0  0  0  0
 ITRead=  0  0  0  0  0  0  0  0  0  0  0  0  0  0  0  0  0  0  0  0
 ITRead=  0  0  0  0  0  0  0  0  0  0  0  0  0  0  0  0  0  0  0  0
 ITRead=  0  0  0  0  0  0  0  0  0  0  0
 MicOpt= -1 -1 -1 -1 -1 -1 -1 -1 -1 -1 -1 -1 -1 -1 -1 -1 -1 -1 -1 -1
 MicOpt= -1 -1 -1 -1 -1 -1 -1 -1 -1 -1 -1 -1 -1 -1 -1 -1 -1 -1 -1 -1
 MicOpt= -1 -1 -1 -1 -1 -1 -1 -1 -1 -1 -1 -1 -1 -1 -1 -1 -1 -1 -1 -1
 MicOpt= -1 -1 -1 -1 -1 -1 -1 -1 -1 -1 -1 -1 -1 -1 -1 -1 -1 -1 -1 -1
 MicOpt= -1 -1 -1 -1 -1 -1 -1 -1 -1 -1 -1 -1 -1 -1 -1 -1 -1 -1 -1 -1
 MicOpt= -1 -1 -1 -1 -1 -1 -1 -1 -1 -1 -1 -1 -1 -1 -1 -1 -1 -1 -1 -1
 MicOpt= -1 -1 -1 -1 -1 -1 -1 -1 -1 -1 -1 -1 -1 -1 -1 -1 -1 -1 -1 -1
 MicOpt= -1 -1 -1 -1 -1 -1 -1 -1 -1 -1 -1 -1 -1 -1 -1 -1 -1 -1 -1 -1
 MicOpt= -1 -1 -1 -1 -1 -1 -1 -1 -1 -1 -1
 NAtoms=    171 NQM=      171 NQMF=       0 NMMI=      0 NMMIF=      0
                NMic=       0 NMicF=      0.
                    Isotopes and Nuclear Properties:
 (Nuclear quadrupole moments (NQMom) in fm**2, nuclear magnetic moments (NMagM)
  in nuclear magnetons)

  Atom         1           2           3           4           5           6           7           8           9          10
 IAtWgt=          12          12           1          12           1           1          14           1          12          12
 AtmWgt=  12.0000000  12.0000000   1.0078250  12.0000000   1.0078250   1.0078250  14.0030740   1.0078250  12.0000000  12.0000000
 NucSpn=           0           0           1           0           1           1           2           1           0           0
 AtZEff=  -0.0000000  -0.0000000  -0.0000000  -0.0000000  -0.0000000  -0.0000000  -0.0000000  -0.0000000  -0.0000000  -0.0000000
 NQMom=    0.0000000   0.0000000   0.0000000   0.0000000   0.0000000   0.0000000   2.0440000   0.0000000   0.0000000   0.0000000
 NMagM=    0.0000000   0.0000000   2.7928460   0.0000000   2.7928460   2.7928460   0.4037610   2.7928460   0.0000000   0.0000000
 AtZNuc=   6.0000000   6.0000000   1.0000000   6.0000000   1.0000000   1.0000000   7.0000000   1.0000000   6.0000000   6.0000000

  Atom        11          12          13          14          15          16          17          18          19          20
 IAtWgt=          12          12          12           1           1          12           1          12           1          12
 AtmWgt=  12.0000000  12.0000000  12.0000000   1.0078250   1.0078250  12.0000000   1.0078250  12.0000000   1.0078250  12.0000000
 NucSpn=           0           0           0           1           1           0           1           0           1           0
 AtZEff=  -0.0000000  -0.0000000  -0.0000000  -0.0000000  -0.0000000  -0.0000000  -0.0000000  -0.0000000  -0.0000000  -0.0000000
 NQMom=    0.0000000   0.0000000   0.0000000   0.0000000   0.0000000   0.0000000   0.0000000   0.0000000   0.0000000   0.0000000
 NMagM=    0.0000000   0.0000000   0.0000000   2.7928460   2.7928460   0.0000000   2.7928460   0.0000000   2.7928460   0.0000000
 AtZNuc=   6.0000000   6.0000000   6.0000000   1.0000000   1.0000000   6.0000000   1.0000000   6.0000000   1.0000000   6.0000000

  Atom        21          22          23          24          25          26          27          28          29          30
 IAtWgt=           1           1          12           1           1           1          12          12           1           1
 AtmWgt=   1.0078250   1.0078250  12.0000000   1.0078250   1.0078250   1.0078250  12.0000000  12.0000000   1.0078250   1.0078250
 NucSpn=           1           1           0           1           1           1           0           0           1           1
 AtZEff=  -0.0000000  -0.0000000  -0.0000000  -0.0000000  -0.0000000  -0.0000000  -0.0000000  -0.0000000  -0.0000000  -0.0000000
 NQMom=    0.0000000   0.0000000   0.0000000   0.0000000   0.0000000   0.0000000   0.0000000   0.0000000   0.0000000   0.0000000
 NMagM=    2.7928460   2.7928460   0.0000000   2.7928460   2.7928460   2.7928460   0.0000000   0.0000000   2.7928460   2.7928460
 AtZNuc=   1.0000000   1.0000000   6.0000000   1.0000000   1.0000000   1.0000000   6.0000000   6.0000000   1.0000000   1.0000000

  Atom        31          32          33          34          35          36          37          38          39          40
 IAtWgt=           1          12           1           1          12           1           1           1          12          12
 AtmWgt=   1.0078250  12.0000000   1.0078250   1.0078250  12.0000000   1.0078250   1.0078250   1.0078250  12.0000000  12.0000000
 NucSpn=           1           0           1           1           0           1           1           1           0           0
 AtZEff=  -0.0000000  -0.0000000  -0.0000000  -0.0000000  -0.0000000  -0.0000000  -0.0000000  -0.0000000  -0.0000000  -0.0000000
 NQMom=    0.0000000   0.0000000   0.0000000   0.0000000   0.0000000   0.0000000   0.0000000   0.0000000   0.0000000   0.0000000
 NMagM=    2.7928460   0.0000000   2.7928460   2.7928460   0.0000000   2.7928460   2.7928460   2.7928460   0.0000000   0.0000000
 AtZNuc=   1.0000000   6.0000000   1.0000000   1.0000000   6.0000000   1.0000000   1.0000000   1.0000000   6.0000000   6.0000000

  Atom        41          42          43          44          45          46          47          48          49          50
 IAtWgt=           1           1          12           1           1          12          16          14           1           1
 AtmWgt=   1.0078250   1.0078250  12.0000000   1.0078250   1.0078250  12.0000000  15.9949146  14.0030740   1.0078250   1.0078250
 NucSpn=           1           1           0           1           1           0           0           2           1           1
 AtZEff=  -0.0000000  -0.0000000  -0.0000000  -0.0000000  -0.0000000  -0.0000000  -0.0000000  -0.0000000  -0.0000000  -0.0000000
 NQMom=    0.0000000   0.0000000   0.0000000   0.0000000   0.0000000   0.0000000   0.0000000   2.0440000   0.0000000   0.0000000
 NMagM=    2.7928460   2.7928460   0.0000000   2.7928460   2.7928460   0.0000000   0.0000000   0.4037610   2.7928460   2.7928460
 AtZNuc=   1.0000000   1.0000000   6.0000000   1.0000000   1.0000000   6.0000000   8.0000000   7.0000000   1.0000000   1.0000000

  Atom        51          52          53          54          55          56          57          58          59          60
 IAtWgt=          12          12           1           1          12          12           1          12           1          12
 AtmWgt=  12.0000000  12.0000000   1.0078250   1.0078250  12.0000000  12.0000000   1.0078250  12.0000000   1.0078250  12.0000000
 NucSpn=           0           0           1           1           0           0           1           0           1           0
 AtZEff=  -0.0000000  -0.0000000  -0.0000000  -0.0000000  -0.0000000  -0.0000000  -0.0000000  -0.0000000  -0.0000000  -0.0000000
 NQMom=    0.0000000   0.0000000   0.0000000   0.0000000   0.0000000   0.0000000   0.0000000   0.0000000   0.0000000   0.0000000
 NMagM=    0.0000000   0.0000000   2.7928460   2.7928460   0.0000000   0.0000000   2.7928460   0.0000000   2.7928460   0.0000000
 AtZNuc=   6.0000000   6.0000000   1.0000000   1.0000000   6.0000000   6.0000000   1.0000000   6.0000000   1.0000000   6.0000000

  Atom        61          62          63          64          65          66          67          68          69          70
 IAtWgt=          16           1          12           1          12           1          12          12           1           1
 AtmWgt=  15.9949146   1.0078250  12.0000000   1.0078250  12.0000000   1.0078250  12.0000000  12.0000000   1.0078250   1.0078250
 NucSpn=           0           1           0           1           0           1           0           0           1           1
 AtZEff=  -0.0000000  -0.0000000  -0.0000000  -0.0000000  -0.0000000  -0.0000000  -0.0000000  -0.0000000  -0.0000000  -0.0000000
 NQMom=    0.0000000   0.0000000   0.0000000   0.0000000   0.0000000   0.0000000   0.0000000   0.0000000   0.0000000   0.0000000
 NMagM=    0.0000000   2.7928460   0.0000000   2.7928460   0.0000000   2.7928460   0.0000000   0.0000000   2.7928460   2.7928460
 AtZNuc=   8.0000000   1.0000000   6.0000000   1.0000000   6.0000000   1.0000000   6.0000000   6.0000000   1.0000000   1.0000000

  Atom        71          72          73          74          75          76          77          78          79          80
 IAtWgt=          12          12           1          12           1          12           1          12           1          12
 AtmWgt=  12.0000000  12.0000000   1.0078250  12.0000000   1.0078250  12.0000000   1.0078250  12.0000000   1.0078250  12.0000000
 NucSpn=           0           0           1           0           1           0           1           0           1           0
 AtZEff=  -0.0000000  -0.0000000  -0.0000000  -0.0000000  -0.0000000  -0.0000000  -0.0000000  -0.0000000  -0.0000000  -0.0000000
 NQMom=    0.0000000   0.0000000   0.0000000   0.0000000   0.0000000   0.0000000   0.0000000   0.0000000   0.0000000   0.0000000
 NMagM=    0.0000000   0.0000000   2.7928460   0.0000000   2.7928460   0.0000000   2.7928460   0.0000000   2.7928460   0.0000000
 AtZNuc=   6.0000000   6.0000000   1.0000000   6.0000000   1.0000000   6.0000000   1.0000000   6.0000000   1.0000000   6.0000000

  Atom        81          82          83          84          85          86          87          88          89          90
 IAtWgt=           1          12          12           1           1          32          12           1           1          12
 AtmWgt=   1.0078250  12.0000000  12.0000000   1.0078250   1.0078250  31.9720718  12.0000000   1.0078250   1.0078250  12.0000000
 NucSpn=           1           0           0           1           1           0           0           1           1           0
 AtZEff=  -0.0000000  -0.0000000  -0.0000000  -0.0000000  -0.0000000  -0.0000000  -0.0000000  -0.0000000  -0.0000000  -0.0000000
 NQMom=    0.0000000   0.0000000   0.0000000   0.0000000   0.0000000   0.0000000   0.0000000   0.0000000   0.0000000   0.0000000
 NMagM=    2.7928460   0.0000000   0.0000000   2.7928460   2.7928460   0.0000000   0.0000000   2.7928460   2.7928460   0.0000000
 AtZNuc=   1.0000000   6.0000000   6.0000000   1.0000000   1.0000000  16.0000000   6.0000000   1.0000000   1.0000000   6.0000000

  Atom        91          92          93          94          95          96          97          98          99         100
 IAtWgt=          12          12           1          12          12           1           1           1          12           1
 AtmWgt=  12.0000000  12.0000000   1.0078250  12.0000000  12.0000000   1.0078250   1.0078250   1.0078250  12.0000000   1.0078250
 NucSpn=           0           0           1           0           0           1           1           1           0           1
 AtZEff=  -0.0000000  -0.0000000  -0.0000000  -0.0000000  -0.0000000  -0.0000000  -0.0000000  -0.0000000  -0.0000000  -0.0000000
 NQMom=    0.0000000   0.0000000   0.0000000   0.0000000   0.0000000   0.0000000   0.0000000   0.0000000   0.0000000   0.0000000
 NMagM=    0.0000000   0.0000000   2.7928460   0.0000000   0.0000000   2.7928460   2.7928460   2.7928460   0.0000000   2.7928460
 AtZNuc=   6.0000000   6.0000000   1.0000000   6.0000000   6.0000000   1.0000000   1.0000000   1.0000000   6.0000000   1.0000000

  Atom       101         102         103         104         105         106         107         108         109         110
 IAtWgt=          12          14          12          12          16          14           1          12          16          14
 AtmWgt=  12.0000000  14.0030740  12.0000000  12.0000000  15.9949146  14.0030740   1.0078250  12.0000000  15.9949146  14.0030740
 NucSpn=           0           2           0           0           0           2           1           0           0           2
 AtZEff=  -0.0000000  -0.0000000  -0.0000000  -0.0000000  -0.0000000  -0.0000000  -0.0000000  -0.0000000  -0.0000000  -0.0000000
 NQMom=    0.0000000   2.0440000   0.0000000   0.0000000   0.0000000   2.0440000   0.0000000   0.0000000   0.0000000   2.0440000
 NMagM=    0.0000000   0.4037610   0.0000000   0.0000000   0.0000000   0.4037610   2.7928460   0.0000000   0.0000000   0.4037610
 AtZNuc=   6.0000000   7.0000000   6.0000000   6.0000000   8.0000000   7.0000000   1.0000000   6.0000000   8.0000000   7.0000000

  Atom       111         112         113         114         115         116         117         118         119         120
 IAtWgt=          12          14          12          12          12           1           1          12          12           1
 AtmWgt=  12.0000000  14.0030740  12.0000000  12.0000000  12.0000000   1.0078250   1.0078250  12.0000000  12.0000000   1.0078250
 NucSpn=           0           2           0           0           0           1           1           0           0           1
 AtZEff=  -0.0000000  -0.0000000  -0.0000000  -0.0000000  -0.0000000  -0.0000000  -0.0000000  -0.0000000  -0.0000000  -0.0000000
 NQMom=    0.0000000   2.0440000   0.0000000   0.0000000   0.0000000   0.0000000   0.0000000   0.0000000   0.0000000   0.0000000
 NMagM=    0.0000000   0.4037610   0.0000000   0.0000000   0.0000000   2.7928460   2.7928460   0.0000000   0.0000000   2.7928460
 AtZNuc=   6.0000000   7.0000000   6.0000000   6.0000000   6.0000000   1.0000000   1.0000000   6.0000000   6.0000000   1.0000000

  Atom       121         122         123         124         125         126         127         128         129         130
 IAtWgt=          12           1          12          16           1          12           1          12           1          12
 AtmWgt=  12.0000000   1.0078250  12.0000000  15.9949146   1.0078250  12.0000000   1.0078250  12.0000000   1.0078250  12.0000000
 NucSpn=           0           1           0           0           1           0           1           0           1           0
 AtZEff=  -0.0000000  -0.0000000  -0.0000000  -0.0000000  -0.0000000  -0.0000000  -0.0000000  -0.0000000  -0.0000000  -0.0000000
 NQMom=    0.0000000   0.0000000   0.0000000   0.0000000   0.0000000   0.0000000   0.0000000   0.0000000   0.0000000   0.0000000
 NMagM=    0.0000000   2.7928460   0.0000000   0.0000000   2.7928460   0.0000000   2.7928460   0.0000000   2.7928460   0.0000000
 AtZNuc=   6.0000000   1.0000000   6.0000000   8.0000000   1.0000000   6.0000000   1.0000000   6.0000000   1.0000000   6.0000000

  Atom       131         132         133         134         135         136         137         138         139         140
 IAtWgt=          12           1           1          12          12           1          12           1          12          16
 AtmWgt=  12.0000000   1.0078250   1.0078250  12.0000000  12.0000000   1.0078250  12.0000000   1.0078250  12.0000000  15.9949146
 NucSpn=           0           1           1           0           0           1           0           1           0           0
 AtZEff=  -0.0000000  -0.0000000  -0.0000000  -0.0000000  -0.0000000  -0.0000000  -0.0000000  -0.0000000  -0.0000000  -0.0000000
 NQMom=    0.0000000   0.0000000   0.0000000   0.0000000   0.0000000   0.0000000   0.0000000   0.0000000   0.0000000   0.0000000
 NMagM=    0.0000000   2.7928460   2.7928460   0.0000000   0.0000000   2.7928460   0.0000000   2.7928460   0.0000000   0.0000000
 AtZNuc=   6.0000000   1.0000000   1.0000000   6.0000000   6.0000000   1.0000000   6.0000000   1.0000000   6.0000000   8.0000000

  Atom       141         142         143         144         145         146         147         148         149         150
 IAtWgt=           1          12           1          12           1           1           1           1           1           1
 AtmWgt=   1.0078250  12.0000000   1.0078250  12.0000000   1.0078250   1.0078250   1.0078250   1.0078250   1.0078250   1.0078250
 NucSpn=           1           0           1           0           1           1           1           1           1           1
 AtZEff=  -0.0000000  -0.0000000  -0.0000000  -0.0000000  -0.0000000  -0.0000000  -0.0000000  -0.0000000  -0.0000000  -0.0000000
 NQMom=    0.0000000   0.0000000   0.0000000   0.0000000   0.0000000   0.0000000   0.0000000   0.0000000   0.0000000   0.0000000
 NMagM=    2.7928460   0.0000000   2.7928460   0.0000000   2.7928460   2.7928460   2.7928460   2.7928460   2.7928460   2.7928460
 AtZNuc=   1.0000000   6.0000000   1.0000000   6.0000000   1.0000000   1.0000000   1.0000000   1.0000000   1.0000000   1.0000000

  Atom       151         152         153         154         155         156         157         158         159         160
 IAtWgt=           1           1           1           1           1           1           1          12           1           1
 AtmWgt=   1.0078250   1.0078250   1.0078250   1.0078250   1.0078250   1.0078250   1.0078250  12.0000000   1.0078250   1.0078250
 NucSpn=           1           1           1           1           1           1           1           0           1           1
 AtZEff=  -0.0000000  -0.0000000  -0.0000000  -0.0000000  -0.0000000  -0.0000000  -0.0000000  -0.0000000  -0.0000000  -0.0000000
 NQMom=    0.0000000   0.0000000   0.0000000   0.0000000   0.0000000   0.0000000   0.0000000   0.0000000   0.0000000   0.0000000
 NMagM=    2.7928460   2.7928460   2.7928460   2.7928460   2.7928460   2.7928460   2.7928460   0.0000000   2.7928460   2.7928460
 AtZNuc=   1.0000000   1.0000000   1.0000000   1.0000000   1.0000000   1.0000000   1.0000000   6.0000000   1.0000000   1.0000000

  Atom       161         162         163         164         165         166         167         168         169         170
 IAtWgt=           1           1           1           1           1           1           1           1           1           1
 AtmWgt=   1.0078250   1.0078250   1.0078250   1.0078250   1.0078250   1.0078250   1.0078250   1.0078250   1.0078250   1.0078250
 NucSpn=           1           1           1           1           1           1           1           1           1           1
 AtZEff=  -0.0000000  -0.0000000  -0.0000000  -0.0000000  -0.0000000  -0.0000000  -0.0000000  -0.0000000  -0.0000000  -0.0000000
 NQMom=    0.0000000   0.0000000   0.0000000   0.0000000   0.0000000   0.0000000   0.0000000   0.0000000   0.0000000   0.0000000
 NMagM=    2.7928460   2.7928460   2.7928460   2.7928460   2.7928460   2.7928460   2.7928460   2.7928460   2.7928460   2.7928460
 AtZNuc=   1.0000000   1.0000000   1.0000000   1.0000000   1.0000000   1.0000000   1.0000000   1.0000000   1.0000000   1.0000000

  Atom       171
 IAtWgt=           1
 AtmWgt=   1.0078250
 NucSpn=           1
 AtZEff=  -0.0000000
 NQMom=    0.0000000
 NMagM=    2.7928460
 AtZNuc=   1.0000000
 Leave Link  101 at Mon Apr  4 00:12:56 2022, MaxMem=  4294967296 cpu:               6.5 elap:               0.1
 (Enter /share/apps/g16/l202.exe)
 Stoichiometry    C68H90N6O6S
 Framework group  C1[X(C68H90N6O6S)]
 Deg. of freedom   507
 Full point group                 C1      NOp   1
 Largest Abelian subgroup         C1      NOp   1
 Largest concise Abelian subgroup C1      NOp   1
                         Standard orientation:                         
 ---------------------------------------------------------------------
 Center     Atomic      Atomic             Coordinates (Angstroms)
 Number     Number       Type             X           Y           Z
 ---------------------------------------------------------------------
      1          6           0        0.177946   -0.087873    0.107110
      2          6           0        1.491099    0.137628    0.492226
      3          1           0        1.978133    1.049269    0.158353
      4          6           0       -0.365038    0.795747   -0.818165
      5          1           0        0.235028    1.618681   -1.211421
      6          1           0       -0.408977   -0.914692    0.482273
      7          7           0       -1.589115    0.704878   -1.293358
      8          1           0       -2.178424   -0.060192   -0.947982
      9          6           0       -2.133096    1.625704   -2.282892
     10          6           0       -3.591610    1.357389   -2.568992
     11          6           0       -4.245332    0.131859   -2.652469
     12          6           0       -4.273507    2.560479   -2.750390
     13          6           0       -5.618631    0.125625   -2.908963
     14          1           0       -3.707947   -0.802598   -2.496779
     15          1           0       -6.150020   -0.820443   -2.968702
     16          6           0       -6.305262    1.327244   -3.104503
     17          1           0       -7.371455    1.308078   -3.307584
     18          6           0       -5.635685    2.550319   -3.034247
     19          1           0       -6.178855    3.481293   -3.171335
     20          6           0       -3.341255    3.735447   -2.557000
     21          1           0       -3.049616    4.157570   -3.526928
     22          1           0       -3.796180    4.540536   -1.971453
     23          6           0       -2.130107    3.104891   -1.836134
     24          1           0       -2.288139    3.129730   -0.750899
     25          1           0       -1.186001    3.612118   -2.058996
     26          1           0       -1.551539    1.508098   -3.208896
     27          6           0       -5.298821   -3.406263   -1.369438
     28          6           0       -4.488421   -4.651009   -1.004211
     29          1           0       -5.126093   -5.382058   -0.490809
     30          1           0       -4.059327   -5.135407   -1.886464
     31          1           0       -3.666090   -4.392343   -0.329620
     32          6           0       -6.534633   -3.750834   -2.208576
     33          1           0       -7.158860   -4.455499   -1.641027
     34          1           0       -7.142811   -2.844880   -2.338233
     35          6           0       -6.207681   -4.336286   -3.580548
     36          1           0       -7.115753   -4.501275   -4.167804
     37          1           0       -5.560143   -3.656369   -4.146295
     38          1           0       -5.689424   -5.295887   -3.495022
     39          6           0       -4.835572   -3.855150    4.833552
     40          6           0       -3.529997   -3.165826    5.224369
     41          1           0       -3.721123   -2.121437    5.499910
     42          1           0       -3.116529   -3.636160    6.122246
     43          6           0       -2.469918   -3.246516    4.122420
     44          1           0       -1.538452   -2.755975    4.431578
     45          1           0       -2.239964   -4.295486    3.909139
     46          6           0       -2.852064   -2.610700    2.800985
     47          8           0       -2.552422   -3.153036    1.724563
     48          7           0       -3.519212   -1.451831    2.850855
     49          1           0       -3.686940   -0.981365    3.727867
     50          1           0       -3.716043   -0.952284    1.986171
     51          6           0       -4.733110    5.689536    3.340169
     52          6           0       -3.789467    5.491635    2.149024
     53          1           0       -4.071215    6.175909    1.339425
     54          1           0       -2.765901    5.751517    2.443319
     55          6           0       -3.810798    4.068239    1.645446
     56          6           0       -4.827940    3.618485    0.798085
     57          1           0       -5.589869    4.315956    0.455905
     58          6           0       -4.889855    2.290449    0.386078
     59          1           0       -5.680760    1.947498   -0.277723
     60          6           0       -3.907871    1.399745    0.810922
     61          8           0       -3.905161    0.083108    0.415609
     62          1           0       -4.614495   -0.076716   -0.231263
     63          6           0       -2.876201    1.820422    1.647279
     64          1           0       -2.103413    1.115051    1.946851
     65          6           0       -2.843229    3.148835    2.062754
     66          1           0       -2.041285    3.481311    2.717464
     67          6           0       -1.105661    6.063302   -0.109252
     68          6           0        0.266249    5.436935    0.160091
     69          1           0        0.512835    4.745489   -0.653734
     70          1           0        1.031307    6.223365    0.143982
     71          6           0        0.324773    4.693184    1.474217
     72          6           0        0.161884    5.357898    2.694734
     73          1           0        0.014440    6.435921    2.702948
     74          6           0        0.192767    4.656052    3.898186
     75          1           0        0.068482    5.189156    4.836128
     76          6           0        0.382643    3.273274    3.902873
     77          1           0        0.399816    2.728139    4.841326
     78          6           0        0.543126    2.595803    2.695421
     79          1           0        0.664019    1.513696    2.686112
     80          6           0        0.518821    3.311042    1.498072
     81          1           0        0.637255    2.792588    0.551805
     82          6           0        8.019662    1.723955   -2.679302
     83          6           0        7.711163    1.748077   -1.187185
     84          1           0        6.632541    1.660719   -1.015590
     85          1           0        8.059089    2.682698   -0.736293
     86         16           0        8.547866    0.350760   -0.370502
     87          6           0        7.857247    0.499946    1.319605
     88          1           0        8.115496    1.482086    1.721002
     89          1           0        8.400942   -0.247820    1.903693
     90          6           0        6.373056    0.238035    1.377125
     91          6           0        5.932528   -1.075596    1.195870
     92          6           0        4.575784   -1.401368    1.170180
     93          1           0        6.677082   -1.847376    1.034717
     94          6           0        5.448959    1.272888    1.586480
     95          6           0        5.867674    2.700961    1.839774
     96          1           0        6.458256    2.790886    2.757622
     97          1           0        6.474645    3.100613    1.021151
     98          1           0        4.989165    3.341865    1.945341
     99          6           0        4.090064    0.946103    1.580488
    100          1           0        3.349011    1.722383    1.760268
    101          6           0        3.658942   -0.350637    1.345986
    102          7           0        2.280217   -0.668775    1.194191
    103          6           0        1.915951   -1.988440    1.574000
    104          6           0        0.686993   -2.269097    2.231473
    105          8           0       -0.126928   -1.441554    2.670924
    106          7           0        0.445949   -3.632971    2.339557
    107          1           0       -0.511152   -3.894947    2.552855
    108          6           0        1.247376   -4.650751    1.813722
    109          8           0        0.786623   -5.788890    1.743688
    110          7           0        2.517953   -4.321714    1.434526
    111          6           0        2.814157   -3.036664    1.322065
    112          7           0        4.116405   -2.701641    0.944963
    113          6           0        5.099226   -3.752777    0.726677
    114          6           0        4.797486   -0.564655   -2.132844
    115          6           0        3.283210   -0.603573   -2.346523
    116          1           0        3.045496   -1.265614   -3.187887
    117          1           0        2.803207   -1.065928   -1.469522
    118          6           0        2.664380    0.754007   -2.608108
    119          6           0        3.051891    1.892099   -1.887313
    120          1           0        3.837628    1.815456   -1.137787
    121          6           0        2.448392    3.129807   -2.089331
    122          1           0        2.756935    4.004038   -1.524035
    123          6           0        1.449845    3.263301   -3.056886
    124          8           0        0.898196    4.499507   -3.226341
    125          1           0        0.256928    4.472421   -3.953206
    126          6           0        1.060929    2.150528   -3.802975
    127          1           0        0.302179    2.253199   -4.575633
    128          6           0        1.662117    0.913731   -3.568122
    129          1           0        1.343183    0.054909   -4.153297
    130          6           0        3.441799   -4.398565   -2.107060
    131          6           0        2.270025   -4.435284   -3.091170
    132          1           0        2.531275   -3.889833   -4.005620
    133          1           0        2.086670   -5.474914   -3.391025
    134          6           0        1.012133   -3.842103   -2.499501
    135          6           0        0.353378   -2.772478   -3.108171
    136          1           0        0.735070   -2.379834   -4.048595
    137          6           0       -0.783509   -2.198507   -2.544119
    138          1           0       -1.277069   -1.358295   -3.025065
    139          6           0       -1.278911   -2.692081   -1.337472
    140          8           0       -2.357217   -2.066178   -0.774293
    141          1           0       -2.507674   -2.420795    0.139766
    142          6           0       -0.657033   -3.785761   -0.728873
    143          1           0       -1.053759   -4.187443    0.198492
    144          6           0        0.476044   -4.345315   -1.309087
    145          1           0        0.946527   -5.188594   -0.808628
    146          1           0        7.515265    2.555364   -3.179071
    147          1           0        7.675981    0.790437   -3.133528
    148          1           0        9.094132    1.817877   -2.860717
    149          1           0        5.703697   -3.513007   -0.152995
    150          1           0        4.566332   -4.684772    0.566159
    151          1           0        5.756590   -3.862920    1.597102
    152          1           0       -1.894826    5.305791   -0.048566
    153          1           0       -1.134161    6.515944   -1.105622
    154          1           0       -1.337016    6.842256    0.624585
    155          1           0       -4.447548    5.033240    4.168218
    156          1           0       -5.764138    5.448652    3.062063
    157          1           0       -4.707557    6.723404    3.696748
    158          6           0       -5.702683   -2.652844   -0.103218
    159          1           0       -4.650777   -2.747829   -1.966480
    160          1           0       -6.369969   -3.266270    0.515195
    161          1           0       -6.239420   -1.724843   -0.342556
    162          1           0       -4.823496   -2.410062    0.503129
    163          1           0        3.205168   -4.970447   -1.204557
    164          1           0        3.648760   -3.369827   -1.789599
    165          1           0        4.350893   -4.815299   -2.552147
    166          1           0       -5.565358   -3.809079    5.646317
    167          1           0       -4.658103   -4.909157    4.596622
    168          1           0       -5.282202   -3.383313    3.951908
    169          1           0        5.065622    0.018987   -1.245945
    170          1           0        5.301299   -0.123694   -2.999355
    171          1           0        5.192612   -1.574563   -1.980286
 ---------------------------------------------------------------------
 Rotational constants (GHZ):           0.0305412           0.0216884           0.0179560
 Leave Link  202 at Mon Apr  4 00:12:56 2022, MaxMem=  4294967296 cpu:               0.3 elap:               0.0
 (Enter /share/apps/g16/l301.exe)
 Standard basis: 6-311++G(d,p) (5D, 7F)
 Ernie: Thresh=  0.10000D-02 Tol=  0.10000D-05 Strict=F.
 There are  2501 symmetry adapted cartesian basis functions of A   symmetry.
 There are  2420 symmetry adapted basis functions of A   symmetry.
  2420 basis functions,  3740 primitive gaussians,  2501 cartesian basis functions
   302 alpha electrons      302 beta electrons
       nuclear repulsion energy     16362.1529317790 Hartrees.
 IExCor= 1009 DFT=T Ex+Corr=PBE1PBE ExCW=0 ScaHFX=  0.250000
 ScaDFX=  0.750000  0.750000  1.000000  1.000000 ScalE2=  1.000000  1.000000
 IRadAn=      5 IRanWt=     -1 IRanGd=            0 ICorTp=0 IEmpDi=  4
 NAtoms=  171 NActive=  171 NUniq=  171 SFac= 1.00D+00 NAtFMM=   60 NAOKFM=T Big=T
 Integral buffers will be    131072 words long.
 Raffenetti 2 integral format.
 Two-electron integral symmetry is turned on.
 Using the following non-standard input for PCM:
 eps=4.0
 --- end of non-standard input.
 ------------------------------------------------------------------------------
 Polarizable Continuum Model (PCM)
 =================================
 Model                : C-PCM.
 Atomic radii         : UFF (Universal Force Field).
 Polarization charges : Total charges.
 Charge compensation  : None.
 Solution method      : On-the-fly selection.
 Cavity type          : Scaled VdW (van der Waals Surface) (Alpha=1.100).
 Cavity algorithm     : GePol (No added spheres)
                        Default sphere list used, NSphG=  171.
                        Lebedev-Laikov grids with approx.  5.0 points / Ang**2.
                        Smoothing algorithm: York/Karplus (Gamma=1.0000).
                        Polarization charges: spherical gaussians, with
                                              point-specific exponents (IZeta= 3).
                        Self-potential: point-specific (ISelfS= 7).
                        Self-field    : sphere-specific E.n sum rule (ISelfD= 2).
 Solvent              : Water, Eps=   4.000000 Eps(inf)=   1.777849
 ------------------------------------------------------------------------------
 GePol: Number of generator spheres                  =     171
 GePol: Total number of spheres                      =     171
 GePol: Number of exposed spheres                    =     171 (100.00%)
 GePol: Number of points                             =    8878
 GePol: Average weight of points                     =       0.12
 GePol: Minimum weight of points                     =   0.16D-11
 GePol: Maximum weight of points                     =    0.20577
 GePol: Number of points with low weight             =     830
 GePol: Fraction of low-weight points (<1% of avg)   =       9.35%
 GePol: Cavity surface area                          =   1075.697 Ang**2
 GePol: Cavity volume                                =   1576.915 Ang**3
 Leave Link  301 at Mon Apr  4 00:12:56 2022, MaxMem=  4294967296 cpu:               3.3 elap:               0.1
 (Enter /share/apps/g16/l302.exe)
 NPDir=0 NMtPBC=     1 NCelOv=     1 NCel=       1 NClECP=     1 NCelD=      1
         NCelK=      1 NCelE2=     1 NClLst=     1 CellRange=     0.0.
 One-electron integrals computed using PRISM.
 One-electron integral symmetry used in STVInt
 NBasis=  2420 RedAO= T EigKep=  1.12D-06  NBF=  2420
 NBsUse=  2375 1.00D-06 EigRej=  9.79D-07 NBFU=  2375
 Precomputing XC quadrature grid using
 IXCGrd= 4 IRadAn=           5 IRanWt=          -1 IRanGd=           0 AccXCQ= 0.00D+00.
 Generated NRdTot=       0 NPtTot=           0 NUsed=           0 NTot=          32
 NSgBfM=  2137  2136  2136  2137  2137 MxSgAt=   171 MxSgA2=   171.
 Leave Link  302 at Mon Apr  4 00:13:18 2022, MaxMem=  4294967296 cpu:            1409.6 elap:              22.1
 (Enter /share/apps/g16/l303.exe)
 DipDrv:  MaxL=1.
 Leave Link  303 at Mon Apr  4 00:13:19 2022, MaxMem=  4294967296 cpu:              50.8 elap:               1.0
 (Enter /share/apps/g16/l401.exe)
 ExpMin= 3.60D-02 ExpMax= 9.34D+04 ExpMxC= 3.17D+03 IAcc=3 IRadAn=         5 AccDes= 0.00D+00
 Harris functional with IExCor= 1009 and IRadAn=       5 diagonalized for initial guess.
 HarFok:  IExCor= 1009 AccDes= 0.00D+00 IRadAn=         5 IDoV= 1 UseB2=F ITyADJ=14
 ICtDFT=  3500011 ScaDFX=  1.000000  1.000000  1.000000  1.000000
 FoFCou: FMM=F IPFlag=           0 FMFlag=      100000 FMFlg1=        2001
         NFxFlg=           0 DoJE=T BraDBF=F KetDBF=T FulRan=T
         wScrn=  0.000000 ICntrl=       500 IOpCl=  0 I1Cent=   200000004 NGrid=           0
         NMat0=    1 NMatS0=      1 NMatT0=    0 NMatD0=    1 NMtDS0=    0 NMtDT0=    0
 Petite list used in FoFCou.
 Harris En= -3821.44631783552    
 JPrj=0 DoOrth=F DoCkMO=F.
 Leave Link  401 at Mon Apr  4 00:13:50 2022, MaxMem=  4294967296 cpu:            1936.9 elap:              30.4
 (Enter /share/apps/g16/l502.exe)
 Integral symmetry usage will be decided dynamically.
 Closed shell SCF:
 Using DIIS extrapolation, IDIIS=  1040.
 NGot=  4294967296 LenX=  4282273394 LenY=  4276015892
 Requested convergence on RMS density matrix=1.00D-08 within  32 cycles.
 Requested convergence on MAX density matrix=1.00D-06.
 Requested convergence on             energy=1.00D-06.
 No special actions if energy rises.
 Fock matrices will be formed incrementally for  20 cycles.

 Cycle   1  Pass 1  IDiag  1:
 FoFJK:  IHMeth= 1 ICntrl=       0 DoSepK=F KAlg= 0 I1Cent=           0 FoldK=F
 IRaf= 750000000 NMat=       1 IRICut=       1 DoRegI=T DoRafI=F ISym2E= 0 IDoP0=0 IntGTp=1.
 FoFCou: FMM=T IPFlag=           0 FMFlag=      100000 FMFlg1=        2001
         NFxFlg=           0 DoJE=F BraDBF=F KetDBF=F FulRan=T
         wScrn=  0.000000 ICntrl=         0 IOpCl=  0 I1Cent=           0 NGrid=           0
         NMat0=    1 NMatS0=      1 NMatT0=    0 NMatD0=    1 NMtDS0=    0 NMtDT0=    0
 Symmetry not used in FoFCou.
 FMM levels:  10  Number of levels for PrismC:   9
 Inv3:  Mode=1 IEnd=   236456652.
 Iteration    1 A*A^-1 deviation from unit magnitude is 5.42D-14 for   1500.
 Iteration    1 A*A^-1 deviation from orthogonality  is 6.44D-15 for   8268   2608.
 Iteration    1 A^-1*A deviation from unit magnitude is 5.42D-14 for   1500.
 Iteration    1 A^-1*A deviation from orthogonality  is 6.86D-15 for   6636    526.
 E= -3818.21740490851    
 DIIS: error= 1.32D-02 at cycle   1 NSaved=   1.
 NSaved= 1 IEnMin= 1 EnMin= -3818.21740490851     IErMin= 1 ErrMin= 1.32D-02
 ErrMax= 1.32D-02  0.00D+00 EMaxC= 1.00D-01 BMatC= 2.44D+00 BMatP= 2.44D+00
 IDIUse=3 WtCom= 8.68D-01 WtEn= 1.32D-01
 Coeff-Com:  0.100D+01
 Coeff-En:   0.100D+01
 Coeff:      0.100D+01
 Gap=     0.238 Goal=   None    Shift=    0.000
 GapD=    0.238 DampG=1.000 DampE=0.500 DampFc=0.5000 IDamp=-1.
 Damping current iteration by 5.00D-01
 RMSDP=1.93D-02 MaxDP=6.64D+00              OVMax= 2.33D-01

 Cycle   2  Pass 1  IDiag  1:
 RMSU=  9.03D-03    CP:  9.08D-01
 E= -3819.12033926537     Delta-E=       -0.902934356865 Rises=F Damp=T
 DIIS: error= 4.98D-03 at cycle   2 NSaved=   2.
 NSaved= 2 IEnMin= 2 EnMin= -3819.12033926537     IErMin= 2 ErrMin= 4.98D-03
 ErrMax= 4.98D-03  0.00D+00 EMaxC= 1.00D-01 BMatC= 2.03D-01 BMatP= 2.44D+00
 IDIUse=3 WtCom= 9.50D-01 WtEn= 4.98D-02
 Coeff-Com:  0.530D-01 0.947D+00
 Coeff-En:   0.132D+00 0.868D+00
 Coeff:      0.569D-01 0.943D+00
 Gap=     0.243 Goal=   None    Shift=    0.000
 RMSDP=9.06D-03 MaxDP=2.66D+00 DE=-9.03D-01 OVMax= 2.39D-01

 Cycle   3  Pass 1  IDiag  1:
 RMSU=  4.95D-03    CP:  7.93D-01  2.95D-01
 E= -3820.11380015775     Delta-E=       -0.993460892380 Rises=F Damp=F
 DIIS: error= 9.85D-03 at cycle   3 NSaved=   3.
 NSaved= 3 IEnMin= 3 EnMin= -3820.11380015775     IErMin= 2 ErrMin= 4.98D-03
 ErrMax= 9.85D-03  0.00D+00 EMaxC= 1.00D-01 BMatC= 2.61D-01 BMatP= 2.03D-01
 IDIUse=3 WtCom= 9.15D-02 WtEn= 9.08D-01
 Coeff-Com: -0.396D-01 0.553D+00 0.487D+00
 Coeff-En:   0.000D+00 0.000D+00 0.100D+01
 Coeff:     -0.362D-02 0.506D-01 0.953D+00
 Gap=     0.187 Goal=   None    Shift=    0.000
 RMSDP=1.43D-02 MaxDP=3.80D+00 DE=-9.93D-01 OVMax= 3.67D-01

 Cycle   4  Pass 1  IDiag  1:
 RMSU=  6.31D-03    CP:  8.68D-01  1.53D+00 -1.72D-01
 E= -3819.30352027554     Delta-E=        0.810279882215 Rises=F Damp=F
 DIIS: error= 2.33D-02 at cycle   4 NSaved=   4.
 NSaved= 4 IEnMin= 3 EnMin= -3820.11380015775     IErMin= 2 ErrMin= 4.98D-03
 ErrMax= 2.33D-02  0.00D+00 EMaxC= 1.00D-01 BMatC= 1.20D+00 BMatP= 2.03D-01
 IDIUse=2 WtCom= 0.00D+00 WtEn= 1.00D+00
 Coeff-En:   0.000D+00 0.000D+00 0.765D+00 0.235D+00
 Coeff:      0.000D+00 0.000D+00 0.765D+00 0.235D+00
 Gap=     0.162 Goal=   None    Shift=    0.000
 RMSDP=7.96D-03 MaxDP=2.12D+00 DE= 8.10D-01 OVMax= 1.77D-01

 Cycle   5  Pass 1  IDiag  1:
 RMSU=  1.44D-03    CP:  8.02D-01  8.91D-01  3.64D-01  3.88D-01
 E= -3820.27335255360     Delta-E=       -0.969832278057 Rises=F Damp=F
 DIIS: error= 4.55D-03 at cycle   5 NSaved=   5.
 NSaved= 5 IEnMin= 5 EnMin= -3820.27335255360     IErMin= 5 ErrMin= 4.55D-03
 ErrMax= 4.55D-03  0.00D+00 EMaxC= 1.00D-01 BMatC= 7.58D-02 BMatP= 2.03D-01
 IDIUse=3 WtCom= 9.54D-01 WtEn= 4.55D-02
 Coeff-Com:  0.368D-02 0.615D-02 0.326D+00-0.194D-01 0.683D+00
 Coeff-En:   0.000D+00 0.000D+00 0.277D+00 0.000D+00 0.723D+00
 Coeff:      0.352D-02 0.587D-02 0.324D+00-0.185D-01 0.685D+00
 Gap=     0.134 Goal=   None    Shift=    0.000
 RMSDP=2.53D-03 MaxDP=8.77D-01 DE=-9.70D-01 OVMax= 6.26D-02

 Cycle   6  Pass 1  IDiag  1:
 RMSU=  5.92D-04    CP:  7.92D-01  6.82D-01  5.99D-01  2.37D-01  8.30D-01
 E= -3820.33719183637     Delta-E=       -0.063839282779 Rises=F Damp=F
 DIIS: error= 6.64D-04 at cycle   6 NSaved=   6.
 NSaved= 6 IEnMin= 6 EnMin= -3820.33719183637     IErMin= 6 ErrMin= 6.64D-04
 ErrMax= 6.64D-04  0.00D+00 EMaxC= 1.00D-01 BMatC= 2.69D-03 BMatP= 7.58D-02
 IDIUse=3 WtCom= 9.93D-01 WtEn= 6.64D-03
 Coeff-Com:  0.182D-02-0.310D-02 0.142D+00-0.493D-01 0.468D+00 0.441D+00
 Coeff-En:   0.000D+00 0.000D+00 0.000D+00 0.000D+00 0.000D+00 0.100D+01
 Coeff:      0.181D-02-0.308D-02 0.141D+00-0.490D-01 0.465D+00 0.445D+00
 Gap=     0.133 Goal=   None    Shift=    0.000
 RMSDP=3.27D-04 MaxDP=1.40D-01 DE=-6.38D-02 OVMax= 7.63D-03

 Cycle   7  Pass 1  IDiag  1:
 RMSU=  1.28D-04    CP:  7.90D-01  6.85D-01  5.82D-01  2.42D-01  8.64D-01
                    CP:  5.39D-01
 E= -3820.33950238412     Delta-E=       -0.002310547741 Rises=F Damp=F
 DIIS: error= 1.11D-04 at cycle   7 NSaved=   7.
 NSaved= 7 IEnMin= 7 EnMin= -3820.33950238412     IErMin= 7 ErrMin= 1.11D-04
 ErrMax= 1.11D-04  0.00D+00 EMaxC= 1.00D-01 BMatC= 7.86D-05 BMatP= 2.69D-03
 IDIUse=3 WtCom= 9.99D-01 WtEn= 1.11D-03
 Coeff-Com:  0.729D-03-0.102D-02 0.561D-01-0.249D-01 0.196D+00 0.212D+00
 Coeff-Com:  0.561D+00
 Coeff-En:   0.000D+00 0.000D+00 0.000D+00 0.000D+00 0.000D+00 0.000D+00
 Coeff-En:   0.100D+01
 Coeff:      0.728D-03-0.102D-02 0.561D-01-0.249D-01 0.196D+00 0.212D+00
 Coeff:      0.561D+00
 Gap=     0.133 Goal=   None    Shift=    0.000
 RMSDP=8.25D-05 MaxDP=2.83D-02 DE=-2.31D-03 OVMax= 1.61D-03

 Cycle   8  Pass 1  IDiag  1:
 RMSU=  4.99D-05    CP:  7.90D-01  6.81D-01  5.87D-01  2.39D-01  8.71D-01
                    CP:  5.70D-01  7.20D-01
 E= -3820.33956898116     Delta-E=       -0.000066597044 Rises=F Damp=F
 DIIS: error= 5.96D-05 at cycle   8 NSaved=   8.
 NSaved= 8 IEnMin= 8 EnMin= -3820.33956898116     IErMin= 8 ErrMin= 5.96D-05
 ErrMax= 5.96D-05  0.00D+00 EMaxC= 1.00D-01 BMatC= 1.20D-05 BMatP= 7.86D-05
 IDIUse=1 WtCom= 1.00D+00 WtEn= 0.00D+00
 Coeff-Com:  0.192D-03-0.235D-03 0.919D-02-0.512D-02 0.283D-01 0.368D-01
 Coeff-Com:  0.304D+00 0.627D+00
 Coeff:      0.192D-03-0.235D-03 0.919D-02-0.512D-02 0.283D-01 0.368D-01
 Coeff:      0.304D+00 0.627D+00
 Gap=     0.133 Goal=   None    Shift=    0.000
 RMSDP=2.35D-05 MaxDP=7.30D-03 DE=-6.66D-05 OVMax= 7.72D-04

 Cycle   9  Pass 1  IDiag  1:
 RMSU=  1.62D-05    CP:  7.90D-01  6.81D-01  5.87D-01  2.39D-01  8.70D-01
                    CP:  5.66D-01  7.79D-01  7.30D-01
 E= -3820.33957846480     Delta-E=       -0.000009483643 Rises=F Damp=F
 DIIS: error= 1.56D-05 at cycle   9 NSaved=   9.
 NSaved= 9 IEnMin= 9 EnMin= -3820.33957846480     IErMin= 9 ErrMin= 1.56D-05
 ErrMax= 1.56D-05  0.00D+00 EMaxC= 1.00D-01 BMatC= 1.36D-06 BMatP= 1.20D-05
 IDIUse=1 WtCom= 1.00D+00 WtEn= 0.00D+00
 Coeff-Com:  0.706D-04-0.146D-03 0.963D-03-0.103D-02 0.825D-03 0.514D-02
 Coeff-Com:  0.135D+00 0.374D+00 0.485D+00
 Coeff:      0.706D-04-0.146D-03 0.963D-03-0.103D-02 0.825D-03 0.514D-02
 Coeff:      0.135D+00 0.374D+00 0.485D+00
 Gap=     0.133 Goal=   None    Shift=    0.000
 RMSDP=1.21D-05 MaxDP=4.36D-03 DE=-9.48D-06 OVMax= 2.39D-04

 Cycle  10  Pass 1  IDiag  1:
 RMSU=  6.18D-06    CP:  7.90D-01  6.80D-01  5.88D-01  2.39D-01  8.70D-01
                    CP:  5.68D-01  7.84D-01  7.94D-01  6.29D-01
 E= -3820.33957973257     Delta-E=       -0.000001267763 Rises=F Damp=F
 DIIS: error= 4.12D-06 at cycle  10 NSaved=  10.
 NSaved=10 IEnMin=10 EnMin= -3820.33957973257     IErMin=10 ErrMin= 4.12D-06
 ErrMax= 4.12D-06  0.00D+00 EMaxC= 1.00D-01 BMatC= 1.17D-07 BMatP= 1.36D-06
 IDIUse=1 WtCom= 1.00D+00 WtEn= 0.00D+00
 Coeff-Com:  0.181D-04-0.882D-04-0.491D-03 0.121D-03-0.287D-02-0.607D-03
 Coeff-Com:  0.369D-01 0.129D+00 0.259D+00 0.579D+00
 Coeff:      0.181D-04-0.882D-04-0.491D-03 0.121D-03-0.287D-02-0.607D-03
 Coeff:      0.369D-01 0.129D+00 0.259D+00 0.579D+00
 Gap=     0.133 Goal=   None    Shift=    0.000
 RMSDP=3.11D-06 MaxDP=9.33D-04 DE=-1.27D-06 OVMax= 1.39D-04

 Cycle  11  Pass 1  IDiag  1:
 RMSU=  2.01D-06    CP:  7.89D-01  6.80D-01  5.88D-01  2.39D-01  8.70D-01
                    CP:  5.69D-01  7.88D-01  7.83D-01  6.78D-01  7.30D-01
 E= -3820.33957983023     Delta-E=       -0.000000097669 Rises=F Damp=F
 DIIS: error= 2.27D-06 at cycle  11 NSaved=  11.
 NSaved=11 IEnMin=11 EnMin= -3820.33957983023     IErMin=11 ErrMin= 2.27D-06
 ErrMax= 2.27D-06  0.00D+00 EMaxC= 1.00D-01 BMatC= 2.38D-08 BMatP= 1.17D-07
 IDIUse=1 WtCom= 1.00D+00 WtEn= 0.00D+00
 Coeff-Com: -0.158D-05-0.201D-04-0.475D-03 0.163D-03-0.175D-02-0.453D-03
 Coeff-Com:  0.591D-02 0.323D-01 0.941D-01 0.357D+00 0.513D+00
 Coeff:     -0.158D-05-0.201D-04-0.475D-03 0.163D-03-0.175D-02-0.453D-03
 Coeff:      0.591D-02 0.323D-01 0.941D-01 0.357D+00 0.513D+00
 Gap=     0.133 Goal=   None    Shift=    0.000
 RMSDP=9.79D-07 MaxDP=3.27D-04 DE=-9.77D-08 OVMax= 3.90D-05

 Cycle  12  Pass 1  IDiag  1:
 RMSU=  7.96D-07    CP:  7.89D-01  6.80D-01  5.88D-01  2.39D-01  8.70D-01
                    CP:  5.69D-01  7.88D-01  7.87D-01  6.79D-01  7.67D-01
                    CP:  8.57D-01
 E= -3820.33957984634     Delta-E=       -0.000000016102 Rises=F Damp=F
 DIIS: error= 8.20D-07 at cycle  12 NSaved=  12.
 NSaved=12 IEnMin=12 EnMin= -3820.33957984634     IErMin=12 ErrMin= 8.20D-07
 ErrMax= 8.20D-07  0.00D+00 EMaxC= 1.00D-01 BMatC= 2.90D-09 BMatP= 2.38D-08
 IDIUse=1 WtCom= 1.00D+00 WtEn= 0.00D+00
 Coeff-Com: -0.576D-05 0.627D-05-0.268D-03 0.100D-03-0.771D-03-0.169D-03
 Coeff-Com: -0.232D-02-0.795D-04 0.151D-01 0.125D+00 0.290D+00 0.574D+00
 Coeff:     -0.576D-05 0.627D-05-0.268D-03 0.100D-03-0.771D-03-0.169D-03
 Coeff:     -0.232D-02-0.795D-04 0.151D-01 0.125D+00 0.290D+00 0.574D+00
 Gap=     0.133 Goal=   None    Shift=    0.000
 RMSDP=4.95D-07 MaxDP=4.44D-05 DE=-1.61D-08 OVMax= 2.38D-05

 Cycle  13  Pass 1  IDiag  1:
 RMSU=  2.96D-07    CP:  7.90D-01  6.80D-01  5.88D-01  2.39D-01  8.70D-01
                    CP:  5.69D-01  7.87D-01  7.89D-01  6.85D-01  7.80D-01
                    CP:  8.61D-01  7.96D-01
 E= -3820.33957985375     Delta-E=       -0.000000007414 Rises=F Damp=F
 DIIS: error= 2.58D-07 at cycle  13 NSaved=  13.
 NSaved=13 IEnMin=13 EnMin= -3820.33957985375     IErMin=13 ErrMin= 2.58D-07
 ErrMax= 2.58D-07  0.00D+00 EMaxC= 1.00D-01 BMatC= 3.09D-10 BMatP= 2.90D-09
 IDIUse=1 WtCom= 1.00D+00 WtEn= 0.00D+00
 Coeff-Com: -0.330D-05 0.725D-05-0.878D-04 0.319D-04-0.199D-03 0.609D-05
 Coeff-Com: -0.173D-02-0.344D-02-0.385D-02 0.194D-01 0.717D-01 0.294D+00
 Coeff-Com:  0.624D+00
 Coeff:     -0.330D-05 0.725D-05-0.878D-04 0.319D-04-0.199D-03 0.609D-05
 Coeff:     -0.173D-02-0.344D-02-0.385D-02 0.194D-01 0.717D-01 0.294D+00
 Coeff:      0.624D+00
 Gap=     0.133 Goal=   None    Shift=    0.000
 RMSDP=1.50D-07 MaxDP=1.83D-05 DE=-7.41D-09 OVMax= 5.30D-06

 Cycle  14  Pass 1  IDiag  1:
 RMSU=  1.01D-07    CP:  7.90D-01  6.80D-01  5.88D-01  2.39D-01  8.70D-01
                    CP:  5.69D-01  7.87D-01  7.89D-01  6.86D-01  7.87D-01
                    CP:  8.77D-01  8.84D-01  8.72D-01
 E= -3820.33957985319     Delta-E=        0.000000000564 Rises=F Damp=F
 DIIS: error= 6.99D-08 at cycle  14 NSaved=  14.
 NSaved=14 IEnMin=13 EnMin= -3820.33957985375     IErMin=14 ErrMin= 6.99D-08
 ErrMax= 6.99D-08  0.00D+00 EMaxC= 1.00D-01 BMatC= 3.80D-11 BMatP= 3.09D-10
 IDIUse=1 WtCom= 1.00D+00 WtEn= 0.00D+00
 Coeff-Com: -0.948D-06 0.286D-05-0.851D-05 0.263D-05 0.251D-05 0.304D-04
 Coeff-Com: -0.529D-03-0.171D-02-0.421D-02-0.859D-02-0.835D-02 0.694D-01
 Coeff-Com:  0.331D+00 0.623D+00
 Coeff:     -0.948D-06 0.286D-05-0.851D-05 0.263D-05 0.251D-05 0.304D-04
 Coeff:     -0.529D-03-0.171D-02-0.421D-02-0.859D-02-0.835D-02 0.694D-01
 Coeff:      0.331D+00 0.623D+00
 Gap=     0.133 Goal=   None    Shift=    0.000
 RMSDP=5.49D-08 MaxDP=7.00D-06 DE= 5.64D-10 OVMax= 2.18D-06

 Cycle  15  Pass 1  IDiag  1:
 RMSU=  3.76D-08    CP:  7.90D-01  6.80D-01  5.88D-01  2.39D-01  8.70D-01
                    CP:  5.69D-01  7.87D-01  7.89D-01  6.86D-01  7.87D-01
                    CP:  8.84D-01  9.07D-01  9.31D-01  9.01D-01
 E= -3820.33957985025     Delta-E=        0.000000002939 Rises=F Damp=F
 DIIS: error= 2.60D-08 at cycle  15 NSaved=  15.
 NSaved=15 IEnMin=13 EnMin= -3820.33957985375     IErMin=15 ErrMin= 2.60D-08
 ErrMax= 2.60D-08  0.00D+00 EMaxC= 1.00D-01 BMatC= 4.05D-12 BMatP= 3.80D-11
 IDIUse=1 WtCom= 1.00D+00 WtEn= 0.00D+00
 Coeff-Com: -0.136D-06 0.662D-06 0.516D-05-0.186D-05 0.217D-04 0.142D-04
 Coeff-Com: -0.944D-04-0.535D-03-0.173D-02-0.627D-02-0.116D-01 0.628D-02
 Coeff-Com:  0.105D+00 0.319D+00 0.590D+00
 Coeff:     -0.136D-06 0.662D-06 0.516D-05-0.186D-05 0.217D-04 0.142D-04
 Coeff:     -0.944D-04-0.535D-03-0.173D-02-0.627D-02-0.116D-01 0.628D-02
 Coeff:      0.105D+00 0.319D+00 0.590D+00
 Gap=     0.133 Goal=   None    Shift=    0.000
 RMSDP=1.99D-08 MaxDP=3.27D-06 DE= 2.94D-09 OVMax= 7.79D-07

 Cycle  16  Pass 1  IDiag  1:
 RMSU=  1.10D-08    CP:  7.90D-01  6.80D-01  5.88D-01  2.39D-01  8.70D-01
                    CP:  5.69D-01  7.87D-01  7.89D-01  6.86D-01  7.86D-01
                    CP:  8.85D-01  9.16D-01  9.54D-01  9.39D-01  8.50D-01
 E= -3820.33957984790     Delta-E=        0.000000002350 Rises=F Damp=F
 DIIS: error= 8.79D-09 at cycle  16 NSaved=  16.
 NSaved=16 IEnMin=13 EnMin= -3820.33957985375     IErMin=16 ErrMin= 8.79D-09
 ErrMax= 8.79D-09  0.00D+00 EMaxC= 1.00D-01 BMatC= 6.67D-13 BMatP= 4.05D-12
 IDIUse=1 WtCom= 1.00D+00 WtEn= 0.00D+00
 Coeff-Com:  0.471D-07 0.160D-07 0.371D-05-0.116D-05 0.101D-04 0.162D-05
 Coeff-Com:  0.735D-05-0.914D-04-0.432D-03-0.236D-02-0.542D-02-0.430D-02
 Coeff-Com:  0.171D-01 0.996D-01 0.323D+00 0.573D+00
 Coeff:      0.471D-07 0.160D-07 0.371D-05-0.116D-05 0.101D-04 0.162D-05
 Coeff:      0.735D-05-0.914D-04-0.432D-03-0.236D-02-0.542D-02-0.430D-02
 Coeff:      0.171D-01 0.996D-01 0.323D+00 0.573D+00
 Gap=     0.133 Goal=   None    Shift=    0.000
 RMSDP=6.37D-09 MaxDP=1.86D-06 DE= 2.35D-09 OVMax= 2.05D-07

 Cycle  17  Pass 1  IDiag  1:
 RMSU=  4.06D-09    CP:  7.90D-01  6.80D-01  5.88D-01  2.39D-01  8.70D-01
                    CP:  5.69D-01  7.87D-01  7.89D-01  6.86D-01  7.86D-01
                    CP:  8.86D-01  9.16D-01  9.60D-01  9.56D-01  8.71D-01
                    CP:  8.23D-01
 E= -3820.33957985138     Delta-E=       -0.000000003485 Rises=F Damp=F
 DIIS: error= 3.88D-09 at cycle  17 NSaved=  17.
 NSaved=17 IEnMin=13 EnMin= -3820.33957985375     IErMin=17 ErrMin= 3.88D-09
 ErrMax= 3.88D-09  0.00D+00 EMaxC= 1.00D-01 BMatC= 6.47D-14 BMatP= 6.67D-13
 IDIUse=1 WtCom= 1.00D+00 WtEn= 0.00D+00
 Coeff-Com:  0.489D-07-0.900D-07 0.126D-05-0.380D-06 0.242D-05-0.826D-06
 Coeff-Com:  0.152D-04 0.276D-04 0.275D-04-0.210D-03-0.935D-03-0.220D-02
 Coeff-Com: -0.606D-02 0.281D-02 0.665D-01 0.262D+00 0.678D+00
 Coeff:      0.489D-07-0.900D-07 0.126D-05-0.380D-06 0.242D-05-0.826D-06
 Coeff:      0.152D-04 0.276D-04 0.275D-04-0.210D-03-0.935D-03-0.220D-02
 Coeff:     -0.606D-02 0.281D-02 0.665D-01 0.262D+00 0.678D+00
 Gap=     0.133 Goal=   None    Shift=    0.000
 RMSDP=2.74D-09 MaxDP=9.48D-07 DE=-3.49D-09 OVMax= 7.29D-08

 Error on total polarization charges =  0.02415
 SCF Done:  E(RPBE1PBE) =  -3820.33957985     A.U. after   17 cycles
            NFock= 17  Conv=0.27D-08     -V/T= 2.0040
 KE= 3.805137643104D+03 PE=-4.163518624955D+04 EE= 1.764755609481D+04
 Leave Link  502 at Mon Apr  4 01:28:07 2022, MaxMem=  4294967296 cpu:          282730.5 elap:            4456.8
 (Enter /share/apps/g16/l508.exe)
 QCSCF skips out because SCF is already converged.
 Leave Link  508 at Mon Apr  4 01:28:07 2022, MaxMem=  4294967296 cpu:               0.1 elap:               0.0
 (Enter /share/apps/g16/l601.exe)
 Copying SCF densities to generalized density rwf, IOpCl= 0 IROHF=0.
 Hyperfine terms turned off by default for NAtoms > 100.

 **********************************************************************

            Population analysis using the SCF Density.

 **********************************************************************

 Orbital symmetries:
       Occupied  (A) (A) (A) (A) (A) (A) (A) (A) (A) (A) (A) (A)
                 (A) (A) (A) (A) (A) (A) (A) (A) (A) (A) (A) (A)
                 (A) (A) (A) (A) (A) (A) (A) (A) (A) (A) (A) (A)
                 (A) (A) (A) (A) (A) (A) (A) (A) (A) (A) (A) (A)
                 (A) (A) (A) (A) (A) (A) (A) (A) (A) (A) (A) (A)
                 (A) (A) (A) (A) (A) (A) (A) (A) (A) (A) (A) (A)
                 (A) (A) (A) (A) (A) (A) (A) (A) (A) (A) (A) (A)
                 (A) (A) (A) (A) (A) (A) (A) (A) (A) (A) (A) (A)
                 (A) (A) (A) (A) (A) (A) (A) (A) (A) (A) (A) (A)
                 (A) (A) (A) (A) (A) (A) (A) (A) (A) (A) (A) (A)
                 (A) (A) (A) (A) (A) (A) (A) (A) (A) (A) (A) (A)
                 (A) (A) (A) (A) (A) (A) (A) (A) (A) (A) (A) (A)
                 (A) (A) (A) (A) (A) (A) (A) (A) (A) (A) (A) (A)
                 (A) (A) (A) (A) (A) (A) (A) (A) (A) (A) (A) (A)
                 (A) (A) (A) (A) (A) (A) (A) (A) (A) (A) (A) (A)
                 (A) (A) (A) (A) (A) (A) (A) (A) (A) (A) (A) (A)
                 (A) (A) (A) (A) (A) (A) (A) (A) (A) (A) (A) (A)
                 (A) (A) (A) (A) (A) (A) (A) (A) (A) (A) (A) (A)
                 (A) (A) (A) (A) (A) (A) (A) (A) (A) (A) (A) (A)
                 (A) (A) (A) (A) (A) (A) (A) (A) (A) (A) (A) (A)
                 (A) (A) (A) (A) (A) (A) (A) (A) (A) (A) (A) (A)
                 (A) (A) (A) (A) (A) (A) (A) (A) (A) (A) (A) (A)
                 (A) (A) (A) (A) (A) (A) (A) (A) (A) (A) (A) (A)
                 (A) (A) (A) (A) (A) (A) (A) (A) (A) (A) (A) (A)
                 (A) (A) (A) (A) (A) (A) (A) (A) (A) (A) (A) (A)
                 (A) (A)
       Virtual   (A) (A) (A) (A) (A) (A) (A) (A) (A) (A) (A) (A)
                 (A) (A) (A) (A) (A) (A) (A) (A) (A) (A) (A) (A)
                 (A) (A) (A) (A) (A) (A) (A) (A) (A) (A) (A) (A)
                 (A) (A) (A) (A) (A) (A) (A) (A) (A) (A) (A) (A)
                 (A) (A) (A) (A) (A) (A) (A) (A) (A) (A) (A) (A)
                 (A) (A) (A) (A) (A) (A) (A) (A) (A) (A) (A) (A)
                 (A) (A) (A) (A) (A) (A) (A) (A) (A) (A) (A) (A)
                 (A) (A) (A) (A) (A) (A) (A) (A) (A) (A) (A) (A)
                 (A) (A) (A) (A) (A) (A) (A) (A) (A) (A) (A) (A)
                 (A) (A) (A) (A) (A) (A) (A) (A) (A) (A) (A) (A)
                 (A) (A) (A) (A) (A) (A) (A) (A) (A) (A) (A) (A)
                 (A) (A) (A) (A) (A) (A) (A) (A) (A) (A) (A) (A)
                 (A) (A) (A) (A) (A) (A) (A) (A) (A) (A) (A) (A)
                 (A) (A) (A) (A) (A) (A) (A) (A) (A) (A) (A) (A)
                 (A) (A) (A) (A) (A) (A) (A) (A) (A) (A) (A) (A)
                 (A) (A) (A) (A) (A) (A) (A) (A) (A) (A) (A) (A)
                 (A) (A) (A) (A) (A) (A) (A) (A) (A) (A) (A) (A)
                 (A) (A) (A) (A) (A) (A) (A) (A) (A) (A) (A) (A)
                 (A) (A) (A) (A) (A) (A) (A) (A) (A) (A) (A) (A)
                 (A) (A) (A) (A) (A) (A) (A) (A) (A) (A) (A) (A)
                 (A) (A) (A) (A) (A) (A) (A) (A) (A) (A) (A) (A)
                 (A) (A) (A) (A) (A) (A) (A) (A) (A) (A) (A) (A)
                 (A) (A) (A) (A) (A) (A) (A) (A) (A) (A) (A) (A)
                 (A) (A) (A) (A) (A) (A) (A) (A) (A) (A) (A) (A)
                 (A) (A) (A) (A) (A) (A) (A) (A) (A) (A) (A) (A)
                 (A) (A) (A) (A) (A) (A) (A) (A) (A) (A) (A) (A)
                 (A) (A) (A) (A) (A) (A) (A) (A) (A) (A) (A) (A)
                 (A) (A) (A) (A) (A) (A) (A) (A) (A) (A) (A) (A)
                 (A) (A) (A) (A) (A) (A) (A) (A) (A) (A) (A) (A)
                 (A) (A) (A) (A) (A) (A) (A) (A) (A) (A) (A) (A)
                 (A) (A) (A) (A) (A) (A) (A) (A) (A) (A) (A) (A)
                 (A) (A) (A) (A) (A) (A) (A) (A) (A) (A) (A) (A)
                 (A) (A) (A) (A) (A) (A) (A) (A) (A) (A) (A) (A)
                 (A) (A) (A) (A) (A) (A) (A) (A) (A) (A) (A) (A)
                 (A) (A) (A) (A) (A) (A) (A) (A) (A) (A) (A) (A)
                 (A) (A) (A) (A) (A) (A) (A) (A) (A) (A) (A) (A)
                 (A) (A) (A) (A) (A) (A) (A) (A) (A) (A) (A) (A)
                 (A) (A) (A) (A) (A) (A) (A) (A) (A) (A) (A) (A)
                 (A) (A) (A) (A) (A) (A) (A) (A) (A) (A) (A) (A)
                 (A) (A) (A) (A) (A) (A) (A) (A) (A) (A) (A) (A)
                 (A) (A) (A) (A) (A) (A) (A) (A) (A) (A) (A) (A)
                 (A) (A) (A) (A) (A) (A) (A) (A) (A) (A) (A) (A)
                 (A) (A) (A) (A) (A) (A) (A) (A) (A) (A) (A) (A)
                 (A) (A) (A) (A) (A) (A) (A) (A) (A) (A) (A) (A)
                 (A) (A) (A) (A) (A) (A) (A) (A) (A) (A) (A) (A)
                 (A) (A) (A) (A) (A) (A) (A) (A) (A) (A) (A) (A)
                 (A) (A) (A) (A) (A) (A) (A) (A) (A) (A) (A) (A)
                 (A) (A) (A) (A) (A) (A) (A) (A) (A) (A) (A) (A)
                 (A) (A) (A) (A) (A) (A) (A) (A) (A) (A) (A) (A)
                 (A) (A) (A) (A) (A) (A) (A) (A) (A) (A) (A) (A)
                 (A) (A) (A) (A) (A) (A) (A) (A) (A) (A) (A) (A)
                 (A) (A) (A) (A) (A) (A) (A) (A) (A) (A) (A) (A)
                 (A) (A) (A) (A) (A) (A) (A) (A) (A) (A) (A) (A)
                 (A) (A) (A) (A) (A) (A) (A) (A) (A) (A) (A) (A)
                 (A) (A) (A) (A) (A) (A) (A) (A) (A) (A) (A) (A)
                 (A) (A) (A) (A) (A) (A) (A) (A) (A) (A) (A) (A)
                 (A) (A) (A) (A) (A) (A) (A) (A) (A) (A) (A) (A)
                 (A) (A) (A) (A) (A) (A) (A) (A) (A) (A) (A) (A)
                 (A) (A) (A) (A) (A) (A) (A) (A) (A) (A) (A) (A)
                 (A) (A) (A) (A) (A) (A) (A) (A) (A) (A) (A) (A)
                 (A) (A) (A) (A) (A) (A) (A) (A) (A) (A) (A) (A)
                 (A) (A) (A) (A) (A) (A) (A) (A) (A) (A) (A) (A)
                 (A) (A) (A) (A) (A) (A) (A) (A) (A) (A) (A) (A)
                 (A) (A) (A) (A) (A) (A) (A) (A) (A) (A) (A) (A)
                 (A) (A) (A) (A) (A) (A) (A) (A) (A) (A) (A) (A)
                 (A) (A) (A) (A) (A) (A) (A) (A) (A) (A) (A) (A)
                 (A) (A) (A) (A) (A) (A) (A) (A) (A) (A) (A) (A)
                 (A) (A) (A) (A) (A) (A) (A) (A) (A) (A) (A) (A)
                 (A) (A) (A) (A) (A) (A) (A) (A) (A) (A) (A) (A)
                 (A) (A) (A) (A) (A) (A) (A) (A) (A) (A) (A) (A)
                 (A) (A) (A) (A) (A) (A) (A) (A) (A) (A) (A) (A)
                 (A) (A) (A) (A) (A) (A) (A) (A) (A) (A) (A) (A)
                 (A) (A) (A) (A) (A) (A) (A) (A) (A) (A) (A) (A)
                 (A) (A) (A) (A) (A) (A) (A) (A) (A) (A) (A) (A)
                 (A) (A) (A) (A) (A) (A) (A) (A) (A) (A) (A) (A)
                 (A) (A) (A) (A) (A) (A) (A) (A) (A) (A) (A) (A)
                 (A) (A) (A) (A) (A) (A) (A) (A) (A) (A) (A) (A)
                 (A) (A) (A) (A) (A) (A) (A) (A) (A) (A) (A) (A)
                 (A) (A) (A) (A) (A) (A) (A) (A) (A) (A) (A) (A)
                 (A) (A) (A) (A) (A) (A) (A) (A) (A) (A) (A) (A)
                 (A) (A) (A) (A) (A) (A) (A) (A) (A) (A) (A) (A)
                 (A) (A) (A) (A) (A) (A) (A) (A) (A) (A) (A) (A)
                 (A) (A) (A) (A) (A) (A) (A) (A) (A) (A) (A) (A)
                 (A) (A) (A) (A) (A) (A) (A) (A) (A) (A) (A) (A)
                 (A) (A) (A) (A) (A) (A) (A) (A) (A) (A) (A) (A)
                 (A) (A) (A) (A) (A) (A) (A) (A) (A) (A) (A) (A)
                 (A) (A) (A) (A) (A) (A) (A) (A) (A) (A) (A) (A)
                 (A) (A) (A) (A) (A) (A) (A) (A) (A) (A) (A) (A)
                 (A) (A) (A) (A) (A) (A) (A) (A) (A) (A) (A) (A)
                 (A) (A) (A) (A) (A) (A) (A) (A) (A) (A) (A) (A)
                 (A) (A) (A) (A) (A) (A) (A) (A) (A) (A) (A) (A)
                 (A) (A) (A) (A) (A) (A) (A) (A) (A) (A) (A) (A)
                 (A) (A) (A) (A) (A) (A) (A) (A) (A) (A) (A) (A)
                 (A) (A) (A) (A) (A) (A) (A) (A) (A) (A) (A) (A)
                 (A) (A) (A) (A) (A) (A) (A) (A) (A) (A) (A) (A)
                 (A) (A) (A) (A) (A) (A) (A) (A) (A) (A) (A) (A)
                 (A) (A) (A) (A) (A) (A) (A) (A) (A) (A) (A) (A)
                 (A) (A) (A) (A) (A) (A) (A) (A) (A) (A) (A) (A)
                 (A) (A) (A) (A) (A) (A) (A) (A) (A) (A) (A) (A)
                 (A) (A) (A) (A) (A) (A) (A) (A) (A) (A) (A) (A)
                 (A) (A) (A) (A) (A) (A) (A) (A) (A) (A) (A) (A)
                 (A) (A) (A) (A) (A) (A) (A) (A) (A) (A) (A) (A)
                 (A) (A) (A) (A) (A) (A) (A) (A) (A) (A) (A) (A)
                 (A) (A) (A) (A) (A) (A) (A) (A) (A) (A) (A) (A)
                 (A) (A) (A) (A) (A) (A) (A) (A) (A) (A) (A) (A)
                 (A) (A) (A) (A) (A) (A) (A) (A) (A) (A) (A) (A)
                 (A) (A) (A) (A) (A) (A) (A) (A) (A) (A) (A) (A)
                 (A) (A) (A) (A) (A) (A) (A) (A) (A) (A) (A) (A)
                 (A) (A) (A) (A) (A) (A) (A) (A) (A) (A) (A) (A)
                 (A) (A) (A) (A) (A) (A) (A) (A) (A) (A) (A) (A)
                 (A) (A) (A) (A) (A) (A) (A) (A) (A) (A) (A) (A)
                 (A) (A) (A) (A) (A) (A) (A) (A) (A) (A) (A) (A)
                 (A) (A) (A) (A) (A) (A) (A) (A) (A) (A) (A) (A)
                 (A) (A) (A) (A) (A) (A) (A) (A) (A) (A) (A) (A)
                 (A) (A) (A) (A) (A) (A) (A) (A) (A) (A) (A) (A)
                 (A) (A) (A) (A) (A) (A) (A) (A) (A) (A) (A) (A)
                 (A) (A) (A) (A) (A) (A) (A) (A) (A) (A) (A) (A)
                 (A) (A) (A) (A) (A) (A) (A) (A) (A) (A) (A) (A)
                 (A) (A) (A) (A) (A) (A) (A) (A) (A) (A) (A) (A)
                 (A) (A) (A) (A) (A) (A) (A) (A) (A) (A) (A) (A)
                 (A) (A) (A) (A) (A) (A) (A) (A) (A) (A) (A) (A)
                 (A) (A) (A) (A) (A) (A) (A) (A) (A) (A) (A) (A)
                 (A) (A) (A) (A) (A) (A) (A) (A) (A) (A) (A) (A)
                 (A) (A) (A) (A) (A) (A) (A) (A) (A) (A) (A) (A)
                 (A) (A) (A) (A) (A) (A) (A) (A) (A) (A) (A) (A)
                 (A) (A) (A) (A) (A) (A) (A) (A) (A) (A) (A) (A)
                 (A) (A) (A) (A) (A) (A) (A) (A) (A) (A) (A) (A)
                 (A) (A) (A) (A) (A) (A) (A) (A) (A) (A) (A) (A)
                 (A) (A) (A) (A) (A) (A) (A) (A) (A) (A) (A) (A)
                 (A) (A) (A) (A) (A) (A) (A) (A) (A) (A) (A) (A)
                 (A) (A) (A) (A) (A) (A) (A) (A) (A) (A) (A) (A)
                 (A) (A) (A) (A) (A) (A) (A) (A) (A) (A) (A) (A)
                 (A) (A) (A) (A) (A) (A) (A) (A) (A) (A) (A) (A)
                 (A) (A) (A) (A) (A) (A) (A) (A) (A) (A) (A) (A)
                 (A) (A) (A) (A) (A) (A) (A) (A) (A) (A) (A) (A)
                 (A) (A) (A) (A) (A) (A) (A) (A) (A) (A) (A) (A)
                 (A) (A) (A) (A) (A) (A) (A) (A) (A) (A) (A) (A)
                 (A) (A) (A) (A) (A) (A) (A) (A) (A) (A) (A) (A)
                 (A) (A) (A) (A) (A) (A) (A) (A) (A) (A) (A) (A)
                 (A) (A) (A) (A) (A) (A) (A) (A) (A) (A) (A) (A)
                 (A) (A) (A) (A) (A) (A) (A) (A) (A) (A) (A) (A)
                 (A) (A) (A) (A) (A) (A) (A) (A) (A) (A) (A) (A)
                 (A) (A) (A) (A) (A) (A) (A) (A) (A) (A) (A) (A)
                 (A) (A) (A) (A) (A) (A) (A) (A) (A) (A) (A) (A)
                 (A) (A) (A) (A) (A) (A) (A) (A) (A) (A) (A) (A)
                 (A) (A) (A) (A) (A) (A) (A) (A) (A) (A) (A) (A)
                 (A) (A) (A) (A) (A) (A) (A) (A) (A) (A) (A) (A)
                 (A) (A) (A) (A) (A) (A) (A) (A) (A) (A) (A) (A)
                 (A) (A) (A) (A) (A) (A) (A) (A) (A) (A) (A) (A)
                 (A) (A) (A) (A) (A) (A) (A) (A) (A) (A) (A) (A)
                 (A) (A) (A) (A) (A) (A) (A) (A) (A) (A) (A) (A)
                 (A) (A) (A) (A) (A) (A) (A) (A) (A) (A) (A) (A)
                 (A) (A) (A) (A) (A) (A) (A) (A) (A) (A) (A) (A)
                 (A) (A) (A) (A) (A) (A) (A) (A) (A) (A) (A) (A)
                 (A) (A) (A) (A) (A) (A) (A) (A) (A) (A) (A) (A)
                 (A) (A) (A) (A) (A) (A) (A) (A) (A) (A) (A) (A)
                 (A) (A) (A) (A) (A) (A) (A) (A) (A) (A) (A) (A)
                 (A) (A) (A) (A) (A) (A) (A) (A) (A) (A) (A) (A)
                 (A) (A) (A) (A) (A) (A) (A) (A) (A) (A) (A) (A)
                 (A) (A) (A) (A) (A) (A) (A) (A) (A) (A) (A) (A)
[...]
 Alpha virt. eigenvalues --    3.01961   3.02334   3.02747   3.02898   3.02932
 Alpha virt. eigenvalues --    3.03498   3.03755   3.03795   3.04065   3.04514
 Alpha virt. eigenvalues --    3.04614   3.05286   3.05637   3.06082   3.06147
 Alpha virt. eigenvalues --    3.06228   3.06720   3.07079   3.07235   3.07566
 Alpha virt. eigenvalues --    3.07864   3.08078   3.08470   3.08625   3.08872
 Alpha virt. eigenvalues --    3.09142   3.09645   3.09786   3.10054   3.10233
 Alpha virt. eigenvalues --    3.10621   3.10764   3.11396   3.11581   3.11669
 Alpha virt. eigenvalues --    3.11928   3.12179   3.12613   3.13049   3.13083
 Alpha virt. eigenvalues --    3.13721   3.13925   3.14167   3.14482   3.14852
 Alpha virt. eigenvalues --    3.14992   3.15128   3.15823   3.16017   3.16519
 Alpha virt. eigenvalues --    3.16812   3.17212   3.17855   3.18120   3.18366
 Alpha virt. eigenvalues --    3.18894   3.19186   3.19511   3.20143   3.20236
 Alpha virt. eigenvalues --    3.20612   3.20890   3.21119   3.21681   3.22016
 Alpha virt. eigenvalues --    3.22262   3.22604   3.23534   3.23793   3.23979
 Alpha virt. eigenvalues --    3.24227   3.24455   3.24995   3.25606   3.25646
 Alpha virt. eigenvalues --    3.26310   3.26535   3.27260   3.27392   3.27467
 Alpha virt. eigenvalues --    3.27628   3.28798   3.29494   3.29806   3.29945
 Alpha virt. eigenvalues --    3.30252   3.30598   3.31168   3.31656   3.31975
 Alpha virt. eigenvalues --    3.32497   3.32704   3.33157   3.33873   3.34196
 Alpha virt. eigenvalues --    3.35027   3.35166   3.35342   3.36169   3.36583
 Alpha virt. eigenvalues --    3.37744   3.38610   3.38817   3.39866   3.40466
 Alpha virt. eigenvalues --    3.40666   3.41251   3.41566   3.42228   3.42356
 Alpha virt. eigenvalues --    3.42681   3.43536   3.44104   3.44759   3.44859
 Alpha virt. eigenvalues --    3.45500   3.46084   3.46840   3.47050   3.47360
 Alpha virt. eigenvalues --    3.48409   3.48729   3.49378   3.50276   3.50636
 Alpha virt. eigenvalues --    3.50905   3.51036   3.51801   3.52414   3.54394
 Alpha virt. eigenvalues --    3.55049   3.55729   3.56030   3.56348   3.57007
 Alpha virt. eigenvalues --    3.57584   3.58474   3.59307   3.60168   3.61326
 Alpha virt. eigenvalues --    3.61517   3.61815   3.62608   3.62880   3.63821
 Alpha virt. eigenvalues --    3.63901   3.65608   3.65657   3.65880   3.66434
 Alpha virt. eigenvalues --    3.66664   3.67353   3.67473   3.68050   3.69003
 Alpha virt. eigenvalues --    3.69490   3.71237   3.72257   3.73248   3.73591
 Alpha virt. eigenvalues --    3.74502   3.75831   3.77600   3.78192   3.78722
 Alpha virt. eigenvalues --    3.79818   3.80194   3.81122   3.81559   3.82747
 Alpha virt. eigenvalues --    3.83370   3.83521   3.83663   3.83825   3.84096
 Alpha virt. eigenvalues --    3.84226   3.84263   3.84719   3.84962   3.85030
 Alpha virt. eigenvalues --    3.85257   3.85636   3.85722   3.85968   3.86095
 Alpha virt. eigenvalues --    3.86226   3.86748   3.87133   3.87732   3.87844
 Alpha virt. eigenvalues --    3.88607   3.88628   3.88760   3.89093   3.89222
 Alpha virt. eigenvalues --    3.90246   3.90547   3.90734   3.90779   3.90975
 Alpha virt. eigenvalues --    3.91393   3.91993   3.92142   3.93675   3.94140
 Alpha virt. eigenvalues --    3.94274   3.95173   3.96714   3.98387   3.99248
 Alpha virt. eigenvalues --    4.01214   4.03971   4.04908   4.06010   4.06402
 Alpha virt. eigenvalues --    4.06498   4.07852   4.08631   4.08911   4.09291
 Alpha virt. eigenvalues --    4.09871   4.10491   4.11479   4.12306   4.13563
 Alpha virt. eigenvalues --    4.14303   4.15534   4.16133   4.18492   4.18743
 Alpha virt. eigenvalues --    4.19506   4.20091   4.20591   4.20883   4.21973
 Alpha virt. eigenvalues --    4.22536   4.23817   4.24144   4.24251   4.24992
 Alpha virt. eigenvalues --    4.25278   4.25813   4.26168   4.26243   4.26890
 Alpha virt. eigenvalues --    4.27165   4.27295   4.27388   4.28281   4.28660
 Alpha virt. eigenvalues --    4.30132   4.30685   4.30725   4.32886   4.33935
 Alpha virt. eigenvalues --    4.34514   4.35763   4.36210   4.39239   4.41008
 Alpha virt. eigenvalues --    4.41256   4.41571   4.41920   4.43841   4.44501
 Alpha virt. eigenvalues --    4.45371   4.45890   4.61489   4.82123   4.87044
 Alpha virt. eigenvalues --    4.88176   4.88325   4.88573   4.89476   4.90592
 Alpha virt. eigenvalues --    4.91976   4.92259   4.93552   5.01054   5.03170
 Alpha virt. eigenvalues --    5.11696   5.13363   5.19836   5.24741   5.27299
 Alpha virt. eigenvalues --    5.29538   5.32446   5.33669   5.36685   5.39050
 Alpha virt. eigenvalues --    5.43340   5.45785   5.46567   5.53857   5.54075
 Alpha virt. eigenvalues --    5.68500   5.72199   5.82556   5.87318   5.93031
 Alpha virt. eigenvalues --    5.94357   6.02387   6.05092   8.09718  17.51590
 Alpha virt. eigenvalues --   17.61678  17.62689  23.78548  23.80776  23.81382
 Alpha virt. eigenvalues --   23.83707  23.84737  23.85943  23.95910  23.97721
 Alpha virt. eigenvalues --   23.97959  23.98080  23.99295  23.99644  24.01316
 Alpha virt. eigenvalues --   24.01658  24.02046  24.03048  24.03387  24.03640
 Alpha virt. eigenvalues --   24.04392  24.04789  24.06167  24.07483  24.08922
 Alpha virt. eigenvalues --   24.09162  24.09875  24.10308  24.10712  24.11098
 Alpha virt. eigenvalues --   24.11357  24.11733  24.11852  24.12068  24.12289
 Alpha virt. eigenvalues --   24.12877  24.13026  24.13414  24.13495  24.13635
 Alpha virt. eigenvalues --   24.13932  24.14906  24.15241  24.15882  24.16166
 Alpha virt. eigenvalues --   24.16565  24.16862  24.17148  24.17257  24.17793
 Alpha virt. eigenvalues --   24.18651  24.19401  24.20338  24.20552  24.20776
 Alpha virt. eigenvalues --   24.21369  24.21663  24.22076  24.22250  24.22771
 Alpha virt. eigenvalues --   24.23008  24.23375  24.24927  24.26780  24.28268
 Alpha virt. eigenvalues --   24.29412  24.29566  24.30276  24.31168  24.32637
 Alpha virt. eigenvalues --   35.73519  35.78379  35.80443  35.81437  35.81884
 Alpha virt. eigenvalues --   35.89276  50.10398  50.15182  50.17481  50.21394
 Alpha virt. eigenvalues --   50.22495  50.26253 189.48216
          Condensed to atoms (all electrons):
 Mulliken charges:
               1
     1  C    0.286996
     2  C   -0.577847
     3  H    0.021610
     4  C    0.103499
     5  H    0.219552
     6  H   -0.234269
     7  N    0.408337
     8  H   -0.138489
     9  C   -0.214938
    10  C    0.063934
    11  C   -0.006947
    12  C    0.158753
    13  C   -0.301957
    14  H    0.138181
    15  H    0.306449
    16  C   -0.463424
    17  H    0.246514
    18  C   -0.290241
    19  H    0.230132
    20  C   -0.941702
    21  H    0.261872
    22  H    0.274299
    23  C   -0.222175
    24  H    0.112700
    25  H    0.174647
    26  H    0.462693
    27  C    1.041078
    28  C   -1.024186
    29  H    0.209439
    30  H    0.210005
    31  H    0.122152
    32  C   -0.157831
    33  H    0.201327
    34  H    0.149312
    35  C   -0.734376
    36  H    0.200607
    37  H    0.189536
    38  H    0.178564
    39  C   -0.838200
    40  C   -0.488915
    41  H    0.209599
    42  H    0.239508
    43  C   -0.401391
    44  H    0.309750
    45  H    0.262870
    46  C   -0.568563
    47  O   -0.027672
    48  N    0.084517
    49  H    0.300380
    50  H    0.489613
    51  C   -1.079831
    52  C   -0.363980
    53  H    0.219835
    54  H    0.246553
    55  C    0.359864
    56  C   -1.044918
    57  H    0.286577
    58  C    0.133977
    59  H    0.237138
    60  C   -0.046991
    61  O    0.132369
    62  H    0.247915
    63  C   -0.357729
    64  H    0.198118
    65  C   -0.129642
    66  H    0.370196
    67  C   -1.009505
    68  C   -0.345762
    69  H    0.180997
    70  H    0.263932
    71  C    0.486834
    72  C   -0.416020
    73  H    0.229413
    74  C   -0.543556
    75  H    0.253138
    76  C   -0.179958
    77  H    0.251593
    78  C   -0.030853
    79  H    0.366858
    80  C    0.047350
    81  H   -0.063197
    82  C   -0.967915
    83  C   -0.151967
    84  H    0.120756
    85  H    0.296609
    86  S    0.112064
    87  C   -1.496522
    88  H    0.300065
    89  H    0.298772
    90  C    1.013695
    91  C   -0.614027
    92  C   -0.190947
    93  H    0.289792
    94  C   -0.104389
    95  C   -0.908734
    96  H    0.250818
    97  H    0.210336
    98  H    0.200892
    99  C   -0.072731
   100  H    0.263094
   101  C   -0.220019
   102  N    1.155407
   103  C   -0.740361
   104  C   -0.037987
   105  O   -0.055920
   106  N    0.134510
   107  H    0.388482
   108  C   -0.322534
   109  O   -0.298118
   110  N   -0.044135
   111  C   -0.215159
   112  N    0.747084
   113  C   -0.305293
   114  C   -1.090750
   115  C    0.038206
   116  H    0.395863
   117  H    0.056215
   118  C    0.169881
   119  C   -0.232098
   120  H    0.035518
   121  C   -0.195445
   122  H    0.321995
   123  C   -0.574758
   124  O   -0.062247
   125  H    0.328519
   126  C   -0.302997
   127  H    0.245019
   128  C   -0.206096
   129  H    0.206168
   130  C   -0.225921
   131  C   -0.943452
   132  H    0.179904
   133  H    0.257661
   134  C    0.688244
   135  C   -0.641011
   136  H    0.245757
   137  C   -0.232300
   138  H    0.220498
   139  C   -0.318000
   140  O    0.224725
   141  H   -0.634537
   142  C    0.069047
   143  H    0.279055
   144  C   -0.337021
   145  H    0.301222
   146  H    0.184426
   147  H    0.193202
   148  H    0.208164
   149  H    0.211363
   150  H    0.274610
   151  H    0.212973
   152  H    0.159765
   153  H    0.221920
   154  H    0.212301
   155  H    0.194152
   156  H    0.194277
   157  H    0.198216
   158  C   -0.669633
   159  H   -0.147601
   160  H    0.258008
   161  H    0.201356
   162  H   -0.129155
   163  H    0.144049
   164  H   -0.185280
   165  H    0.236184
   166  H    0.198950
   167  H    0.179676
   168  H    0.196148
   169  H    0.248568
   170  H    0.304768
   171  H    0.260095
 Sum of Mulliken charges =  -0.00000
 Mulliken charges with hydrogens summed into heavy atoms:
               1
     1  C    0.052727
     2  C   -0.556236
     4  C    0.323051
     7  N    0.269848
     9  C    0.247754
    10  C    0.063934
    11  C    0.131234
    12  C    0.158753
    13  C    0.004492
    16  C   -0.216911
    18  C   -0.060109
    20  C   -0.405531
    23  C    0.065173
    27  C    0.893477
    28  C   -0.482591
    32  C    0.192808
    35  C   -0.165668
    39  C   -0.263425
    40  C   -0.039808
    43  C    0.171229
    46  C   -0.568563
    47  O   -0.027672
    48  N    0.874509
    51  C   -0.493187
    52  C    0.102407
    55  C    0.359864
    56  C   -0.758341
    58  C    0.371115
    60  C   -0.046991
    61  O    0.380284
    63  C   -0.159610
    65  C    0.240554
    67  C   -0.415519
    68  C    0.099167
    71  C    0.486834
    72  C   -0.186606
    74  C   -0.290418
    76  C    0.071635
    78  C    0.336005
    80  C   -0.015846
    82  C   -0.382123
    83  C    0.265397
    86  S    0.112064
    87  C   -0.897686
    90  C    1.013695
    91  C   -0.324236
    92  C   -0.190947
    94  C   -0.104389
    95  C   -0.246687
    99  C    0.190364
   101  C   -0.220019
   102  N    1.155407
   103  C   -0.740361
   104  C   -0.037987
   105  O   -0.055920
   106  N    0.522992
   108  C   -0.322534
   109  O   -0.298118
   110  N   -0.044135
   111  C   -0.215159
   112  N    0.747084
   113  C    0.393652
   114  C   -0.277320
   115  C    0.490284
   118  C    0.169881
   119  C   -0.196580
   121  C    0.126550
   123  C   -0.574758
   124  O    0.266272
   126  C   -0.057978
   128  C    0.000073
   130  C   -0.030969
   131  C   -0.505888
   134  C    0.688244
   135  C   -0.395255
   137  C   -0.011802
   139  C   -0.318000
   140  O   -0.409812
   142  C    0.348102
   144  C   -0.035799
   158  C   -0.339425
 Electronic spatial extent (au):  <R**2>=          68247.2578
 Charge=             -0.0000 electrons
 Dipole moment (field-independent basis, Debye):
    X=             -5.0645    Y=             19.1964    Z=             -4.6186  Tot=             20.3834
 Quadrupole moment (field-independent basis, Debye-Ang):
   XX=           -460.8083   YY=           -541.2158   ZZ=           -470.6007
   XY=              0.1031   XZ=              1.3267   YZ=              2.7308
 Traceless Quadrupole moment (field-independent basis, Debye-Ang):
   XX=             30.0666   YY=            -50.3409   ZZ=             20.2743
   XY=              0.1031   XZ=              1.3267   YZ=              2.7308
 Octapole moment (field-independent basis, Debye-Ang**2):
  XXX=           -268.7158  YYY=            587.9975  ZZZ=             54.9591  XYY=            -92.1005
  XXY=             93.4140  XXZ=             50.5160  XZZ=            -72.6057  YZZ=             64.3203
  YYZ=            -82.9028  XYZ=            103.4240
 Hexadecapole moment (field-independent basis, Debye-Ang**3):
 XXXX=         -48527.7372 YYYY=         -31718.5485 ZZZZ=         -15803.9305 XXXY=             19.7005
 XXXZ=            949.0965 YYYX=            -31.4924 YYYZ=            583.7899 ZZZX=           -511.7060
 ZZZY=           -491.8540 XXYY=         -12382.9436 XXZZ=         -10456.6816 YYZZ=          -7479.4154
 XXYZ=           -317.8507 YYXZ=           -180.0799 ZZXY=             80.1307
 N-N= 1.636215293178D+04 E-N=-4.163518624912D+04  KE= 3.805137643104D+03
 Leave Link  601 at Mon Apr  4 01:28:09 2022, MaxMem=  4294967296 cpu:             117.7 elap:               2.3
 (Enter /share/apps/g16/l9999.exe)
 1\1\GINC-COMPUTE-0-3\SP\RPBE1PBE\6-311++G(d,p)\C68H90N6O6S1\RVIANELLO\
 04-Apr-2022\0\\#p PBE1PBE/6-311++G(d,p) scrf=(CPCM,solvent=water,Read)
  scf=(XQC,Tight)\\optimisation\\0,1\C,0,0.177946,-0.087873,0.10711\C,0
 ,1.491099,0.137628,0.492226\H,0,1.978133,1.049269,0.158353\C,0,-0.3650
 38,0.795747,-0.818165\H,0,0.235028,1.618681,-1.211421\H,0,-0.408977,-0
 .914692,0.482273\N,0,-1.589115,0.704878,-1.293358\H,0,-2.178424,-0.060
 192,-0.947982\C,0,-2.133096,1.625704,-2.282892\C,0,-3.59161,1.357389,-
 2.568992\C,0,-4.245332,0.131859,-2.652469\C,0,-4.273507,2.560479,-2.75
 039\C,0,-5.618631,0.125625,-2.908963\H,0,-3.707947,-0.802598,-2.496779
 \H,0,-6.15002,-0.820443,-2.968702\C,0,-6.305262,1.327244,-3.104503\H,0
 ,-7.371455,1.308078,-3.307584\C,0,-5.635685,2.550319,-3.034247\H,0,-6.
 178855,3.481293,-3.171335\C,0,-3.341255,3.735447,-2.557\H,0,-3.049616,
 4.15757,-3.526928\H,0,-3.79618,4.540536,-1.971453\C,0,-2.130107,3.1048
 91,-1.836134\H,0,-2.288139,3.12973,-0.750899\H,0,-1.186001,3.612118,-2
 .058996\H,0,-1.551539,1.508098,-3.208896\C,0,-5.298821,-3.406263,-1.36
 9438\C,0,-4.488421,-4.651009,-1.004211\H,0,-5.126093,-5.382058,-0.4908
 09\H,0,-4.059327,-5.135407,-1.886464\H,0,-3.66609,-4.392343,-0.32962\C
 ,0,-6.534633,-3.750834,-2.208576\H,0,-7.15886,-4.455499,-1.641027\H,0,
 -7.142811,-2.84488,-2.338233\C,0,-6.207681,-4.336286,-3.580548\H,0,-7.
 115753,-4.501275,-4.167804\H,0,-5.560143,-3.656369,-4.146295\H,0,-5.68
 9424,-5.295887,-3.495022\C,0,-4.835572,-3.85515,4.833552\C,0,-3.529997
 ,-3.165826,5.224369\H,0,-3.721123,-2.121437,5.49991\H,0,-3.116529,-3.6
 3616,6.122246\C,0,-2.469918,-3.246516,4.12242\H,0,-1.538452,-2.755975,
 4.431578\H,0,-2.239964,-4.295486,3.909139\C,0,-2.852064,-2.6107,2.8009
 85\O,0,-2.552422,-3.153036,1.724563\N,0,-3.519212,-1.451831,2.850855\H
 ,0,-3.68694,-0.981365,3.727867\H,0,-3.716043,-0.952284,1.986171\C,0,-4
 .73311,5.689536,3.340169\C,0,-3.789467,5.491635,2.149024\H,0,-4.071215
 ,6.175909,1.339425\H,0,-2.765901,5.751517,2.443319\C,0,-3.810798,4.068
 239,1.645446\C,0,-4.82794,3.618485,0.798085\H,0,-5.589869,4.315956,0.4
 55905\C,0,-4.889855,2.290449,0.386078\H,0,-5.68076,1.947498,-0.277723\
 C,0,-3.907871,1.399745,0.810922\O,0,-3.905161,0.083108,0.415609\H,0,-4
 .614495,-0.076716,-0.231263\C,0,-2.876201,1.820422,1.647279\H,0,-2.103
 413,1.115051,1.946851\C,0,-2.843229,3.148835,2.062754\H,0,-2.041285,3.
 481311,2.717464\C,0,-1.105661,6.063302,-0.109252\C,0,0.266249,5.436935
 ,0.160091\H,0,0.512835,4.745489,-0.653734\H,0,1.031307,6.223365,0.1439
 82\C,0,0.324773,4.693184,1.474217\C,0,0.161884,5.357898,2.694734\H,0,0
 .01444,6.435921,2.702948\C,0,0.192767,4.656052,3.898186\H,0,0.068482,5
 .189156,4.836128\C,0,0.382643,3.273274,3.902873\H,0,0.399816,2.728139,
 4.841326\C,0,0.543126,2.595803,2.695421\H,0,0.664019,1.513696,2.686112
 \C,0,0.518821,3.311042,1.498072\H,0,0.637255,2.792588,0.551805\C,0,8.0
 19662,1.723955,-2.679302\C,0,7.711163,1.748077,-1.187185\H,0,6.632541,
 1.660719,-1.01559\H,0,8.059089,2.682698,-0.736293\S,0,8.547866,0.35076
 ,-0.370502\C,0,7.857247,0.499946,1.319605\H,0,8.115496,1.482086,1.7210
 02\H,0,8.400942,-0.24782,1.903693\C,0,6.373056,0.238035,1.377125\C,0,5
 .932528,-1.075596,1.19587\C,0,4.575784,-1.401368,1.17018\H,0,6.677082,
 -1.847376,1.034717\C,0,5.448959,1.272888,1.58648\C,0,5.867674,2.700961
 ,1.839774\H,0,6.458256,2.790886,2.757622\H,0,6.474645,3.100613,1.02115
 1\H,0,4.989165,3.341865,1.945341\C,0,4.090064,0.946103,1.580488\H,0,3.
 349011,1.722383,1.760268\C,0,3.658942,-0.350637,1.345986\N,0,2.280217,
 -0.668775,1.194191\C,0,1.915951,-1.98844,1.574\C,0,0.686993,-2.269097,
 2.231473\O,0,-0.126928,-1.441554,2.670924\N,0,0.445949,-3.632971,2.339
 557\H,0,-0.511152,-3.894947,2.552855\C,0,1.247376,-4.650751,1.813722\O
 ,0,0.786623,-5.78889,1.743688\N,0,2.517953,-4.321714,1.434526\C,0,2.81
 4157,-3.036664,1.322065\N,0,4.116405,-2.701641,0.944963\C,0,5.099226,-
 3.752777,0.726677\C,0,4.797486,-0.564655,-2.132844\C,0,3.28321,-0.6035
 73,-2.346523\H,0,3.045496,-1.265614,-3.187887\H,0,2.803207,-1.065928,-
 1.469522\C,0,2.66438,0.754007,-2.608108\C,0,3.051891,1.892099,-1.88731
 3\H,0,3.837628,1.815456,-1.137787\C,0,2.448392,3.129807,-2.089331\H,0,
 2.756935,4.004038,-1.524035\C,0,1.449845,3.263301,-3.056886\O,0,0.8981
 96,4.499507,-3.226341\H,0,0.256928,4.472421,-3.953206\C,0,1.060929,2.1
 50528,-3.802975\H,0,0.302179,2.253199,-4.575633\C,0,1.662117,0.913731,
 -3.568122\H,0,1.343183,0.054909,-4.153297\C,0,3.441799,-4.398565,-2.10
 706\C,0,2.270025,-4.435284,-3.09117\H,0,2.531275,-3.889833,-4.00562\H,
 0,2.08667,-5.474914,-3.391025\C,0,1.012133,-3.842103,-2.499501\C,0,0.3
 53378,-2.772478,-3.108171\H,0,0.73507,-2.379834,-4.048595\C,0,-0.78350
 9,-2.198507,-2.544119\H,0,-1.277069,-1.358295,-3.025065\C,0,-1.278911,
 -2.692081,-1.337472\O,0,-2.357217,-2.066178,-0.774293\H,0,-2.507674,-2
 .420795,0.139766\C,0,-0.657033,-3.785761,-0.728873\H,0,-1.053759,-4.18
 7443,0.198492\C,0,0.476044,-4.345315,-1.309087\H,0,0.946527,-5.188594,
 -0.808628\H,0,7.515265,2.555364,-3.179071\H,0,7.675981,0.790437,-3.133
 528\H,0,9.094132,1.817877,-2.860717\H,0,5.703697,-3.513007,-0.152995\H
 ,0,4.566332,-4.684772,0.566159\H,0,5.75659,-3.86292,1.597102\H,0,-1.89
 4826,5.305791,-0.048566\H,0,-1.134161,6.515944,-1.105622\H,0,-1.337016
 ,6.842256,0.624585\H,0,-4.447548,5.03324,4.168218\H,0,-5.764138,5.4486
 52,3.062063\H,0,-4.707557,6.723404,3.696748\C,0,-5.702683,-2.652844,-0
 .103218\H,0,-4.650777,-2.747829,-1.96648\H,0,-6.369969,-3.26627,0.5151
 95\H,0,-6.23942,-1.724843,-0.342556\H,0,-4.823496,-2.410062,0.503129\H
 ,0,3.205168,-4.970447,-1.204557\H,0,3.64876,-3.369827,-1.789599\H,0,4.
 350893,-4.815299,-2.552147\H,0,-5.565358,-3.809079,5.646317\H,0,-4.658
 103,-4.909157,4.596622\H,0,-5.282202,-3.383313,3.951908\H,0,5.065622,0
 .018987,-1.245945\H,0,5.301299,-0.123694,-2.999355\H,0,5.192612,-1.574
 563,-1.980286\\Version=ES64L-G16RevB.01\State=1-A\HF=-3820.3395799\RMS
 D=2.739e-09\Dipole=-1.9925134,7.5524419,-1.8171046\Quadrupole=22.35379
 2,-37.427205,15.073413,0.0766477,0.986355,2.0302501\PG=C01 [X(C68H90N6
 O6S1)]\\@


 VIRTUE IS LEARNED AT YOUR MOTHER'S KNEE,
 VICES ARE PICKED UP AT SOME OTHER JOINT.
 Job cpu time:       3 days  7 hours 31 minutes 12.7 seconds.
 Elapsed time:       0 days  1 hours 15 minutes 13.0 seconds.
 File lengths (MBytes):  RWF=   3666 Int=      0 D2E=      0 Chk=    337 Scr=      1
 Normal termination of Gaussian 16 at Mon Apr  4 01:28:10 2022.
