 Entering Gaussian System, Link 0=g16
 Input=ras-n-k1-scan1-ts1-irc-f-opt-scan1-ts1-irc-r-opt-scan1-ts1.com
 Output=ras-n-k1-scan1-ts1-irc-f-opt-scan1-ts1-irc-r-opt-scan1-ts1.log
 Initial command:
 /share/apps/g16/l1.exe "/state/partition1/Gau-106241.inp" -scrdir="/state/partition1/"
 Entering Link 1 = /share/apps/g16/l1.exe PID=    106243.
  
 Copyright (c) 1988-2017, Gaussian, Inc.  All Rights Reserved.
  
 This is part of the Gaussian(R) 16 program.  It is based on
 the Gaussian(R) 09 system (copyright 2009, Gaussian, Inc.),
 the Gaussian(R) 03 system (copyright 2003, Gaussian, Inc.),
 the Gaussian(R) 98 system (copyright 1998, Gaussian, Inc.),
 the Gaussian(R) 94 system (copyright 1995, Gaussian, Inc.),
 the Gaussian 92(TM) system (copyright 1992, Gaussian, Inc.),
 the Gaussian 90(TM) system (copyright 1990, Gaussian, Inc.),
 the Gaussian 88(TM) system (copyright 1988, Gaussian, Inc.),
 the Gaussian 86(TM) system (copyright 1986, Carnegie Mellon
 University), and the Gaussian 82(TM) system (copyright 1983,
 Carnegie Mellon University). Gaussian is a federally registered
 trademark of Gaussian, Inc.
  
 This software contains proprietary and confidential information,
 including trade secrets, belonging to Gaussian, Inc.
  
 This software is provided under written license and may be
 used, copied, transmitted, or stored only in accord with that
 written license.
  
 The following legend is applicable only to US Government
 contracts under FAR:
  
                    RESTRICTED RIGHTS LEGEND
  
 Use, reproduction and disclosure by the US Government is
 subject to restrictions as set forth in subparagraphs (a)
 and (c) of the Commercial Computer Software - Restricted
 Rights clause in FAR 52.227-19.
  
 Gaussian, Inc.
 340 Quinnipiac St., Bldg. 40, Wallingford CT 06492
  
  
 ---------------------------------------------------------------
 Warning -- This program may not be used in any manner that
 competes with the business of Gaussian, Inc. or will provide
 assistance to any competitor of Gaussian, Inc.  The licensee
 of this program is prohibited from giving any competitor of
 Gaussian, Inc. access to this program.  By using this program,
 the user acknowledges that Gaussian, Inc. is engaged in the
 business of creating and licensing software in the field of
 computational chemistry and represents and warrants to the
 licensee that it is not a competitor of Gaussian, Inc. and that
 it will not use this program in any manner prohibited above.
 ---------------------------------------------------------------
  

 Cite this work as:
 Gaussian 16, Revision B.01,
 M. J. Frisch, G. W. Trucks, H. B. Schlegel, G. E. Scuseria, 
 M. A. Robb, J. R. Cheeseman, G. Scalmani, V. Barone, 
 G. A. Petersson, H. Nakatsuji, X. Li, M. Caricato, A. V. Marenich, 
 J. Bloino, B. G. Janesko, R. Gomperts, B. Mennucci, H. P. Hratchian, 
 J. V. Ortiz, A. F. Izmaylov, J. L. Sonnenberg, D. Williams-Young, 
 F. Ding, F. Lipparini, F. Egidi, J. Goings, B. Peng, A. Petrone, 
 T. Henderson, D. Ranasinghe, V. G. Zakrzewski, J. Gao, N. Rega, 
 G. Zheng, W. Liang, M. Hada, M. Ehara, K. Toyota, R. Fukuda, 
 J. Hasegawa, M. Ishida, T. Nakajima, Y. Honda, O. Kitao, H. Nakai, 
 T. Vreven, K. Throssell, J. A. Montgomery, Jr., J. E. Peralta, 
 F. Ogliaro, M. J. Bearpark, J. J. Heyd, E. N. Brothers, K. N. Kudin, 
 V. N. Staroverov, T. A. Keith, R. Kobayashi, J. Normand, 
 K. Raghavachari, A. P. Rendell, J. C. Burant, S. S. Iyengar, 
 J. Tomasi, M. Cossi, J. M. Millam, M. Klene, C. Adamo, R. Cammi, 
 J. W. Ochterski, R. L. Martin, K. Morokuma, O. Farkas, 
 J. B. Foresman, and D. J. Fox, Gaussian, Inc., Wallingford CT, 2016.
 
 ******************************************
 Gaussian 16:  ES64L-G16RevB.01 20-Dec-2017
                 2-Apr-2022 
 ******************************************
 %mem=32GB
 %nproc=64
 Will use up to   64 processors via shared memory.
 ----------------------------------------------------------------------
 #p PBE1PBE/6-311++G(d,p) scrf=(CPCM,solvent=water,Read) scf=(XQC,Tight
 )
 ----------------------------------------------------------------------
 1/38=1,40=2,172=1/1;
 2/12=2,17=6,18=5,40=1/2;
 3/5=4,6=6,7=1111,11=2,25=1,30=1,70=2103,72=1,74=-13/1,2,3;
 4//1;
 5/5=2,8=3,13=1,32=2,38=5,53=1/2,8;
 6/7=2,8=2,9=2,10=2,28=1/1;
 99/5=1,9=1/99;
 Leave Link    1 at Sat Apr  2 16:42:30 2022, MaxMem=  4294967296 cpu:               6.2 elap:               0.1
 (Enter /share/apps/g16/l101.exe)
 ------------
 optimisation
 ------------
 Symbolic Z-matrix:
 Charge =  0 Multiplicity = 1
 6                    0     0.10914  -0.13354   0.65442 
 6                    0     1.38433  -0.63085   0.82289 
 1                    0     1.9917   -0.79931  -0.06891 
 6                    0    -0.21918   0.30733  -0.62635 
 1                    0     0.53247   0.29042  -1.41835 
 1                    0    -0.56383  -0.01013   1.4967 
 7                    0    -1.37791   0.83874  -0.93983 
 1                    0    -2.14729   0.74132  -0.27626 
 6                    0    -1.63651   1.59059  -2.15329 
 6                    0    -3.08105   1.50398  -2.59094 
 6                    0    -3.94238   0.41329  -2.5143 
 6                    0    -3.50544   2.73869  -3.0836 
 6                    0    -5.25829   0.57732  -2.9558 
 1                    0    -3.60392  -0.53291  -2.09216 
 1                    0    -5.95062  -0.25876  -2.90479 
 6                    0    -5.68478   1.80467  -3.47024 
 1                    0    -6.70972   1.91607  -3.8102 
 6                    0    -4.81105   2.89186  -3.53882 
 1                    0    -5.15615   3.84962  -3.91849 
 6                    0    -2.39722   3.76377  -2.97954 
 1                    0    -1.91888   3.91375  -3.95567 
 1                    0    -2.75796   4.73841  -2.63604 
 6                    0    -1.42395   3.11186  -1.97676 
 1                    0    -1.72139   3.37242  -0.95282 
 1                    0    -0.37847   3.40467  -2.11246 
 1                    0    -0.96624   1.19333  -2.92904 
 6                    0    -5.54043  -2.85936  -1.2227 
 6                    0    -4.97782  -4.16257  -0.65287 
 1                    0    -5.73893  -4.67031  -0.04575 
 1                    0    -4.65908  -4.85084  -1.44134 
 1                    0    -4.11571  -3.96286  -0.00923 
 6                    0    -6.8216   -3.09372  -2.0319 
 1                    0    -7.57394  -3.54893  -1.37214 
 1                    0    -7.23498  -2.12265  -2.33758 
 6                    0    -6.62403  -3.96602  -3.26972 
 1                    0    -7.54489  -4.03437  -3.85629 
 1                    0    -5.84332  -3.54948  -3.91633 
 1                    0    -6.32655  -4.98374  -3.00083 
 6                    0    -5.31389  -3.98023   3.85029 
 6                    0    -4.46632  -3.14538   4.80827 
 1                    0    -4.9466   -2.17469   4.97909 
 1                    0    -4.40524  -3.63973   5.78312 
 6                    0    -3.03583  -2.92734   4.28997 
 1                    0    -2.46113  -2.29002   4.96797 
 1                    0    -2.52062  -3.88805   4.2103 
 6                    0    -3.05592  -2.30594   2.91298 
 8                    0    -2.84366  -2.98283   1.89502 
 7                    0    -3.42765  -1.01827   2.85603 
 1                    0    -3.53492  -0.47648   3.70153 
 1                    0    -3.49572  -0.52505   1.97046 
 6                    0    -4.13908   7.01547   2.20106 
 6                    0    -3.04904   6.39883   1.31797 
 1                    0    -3.01746   6.92206   0.35444 
 1                    0    -2.06909   6.54094   1.78802 
 6                    0    -3.2756    4.92311   1.09126 
 6                    0    -4.23753   4.47403   0.18011 
 1                    0    -4.79816   5.19745  -0.40836 
 6                    0    -4.49344   3.11666   0.00466 
 1                    0    -5.22981   2.77497  -0.71982 
 6                    0    -3.76837   2.19129   0.74979 
 8                    0    -3.92288   0.83257   0.57994 
 1                    0    -4.53348   0.64662  -0.15582 
 6                    0    -2.80249   2.60872   1.66046 
 1                    0    -2.23341   1.87386   2.22426 
 6                    0    -2.56535   3.96915   1.82618 
 1                    0    -1.80385   4.28958   2.53333 
 6                    0     0.04669   6.02638  -0.37627 
 6                    0     1.20766   5.16449   0.129 
 1                    0     1.40424   4.36985  -0.59628 
 1                    0     2.1166    5.77812   0.1739 
 6                    0     0.9453    4.5458    1.48114 
 6                    0     0.75343   5.34505   2.6145 
 1                    0     0.80879   6.42774   2.52093 
 6                    0     0.50169   4.77191   3.8587 
 1                    0     0.35823   5.4075    4.72761 
 6                    0     0.43968   3.38372   3.9914 
 1                    0     0.2489    2.93629   4.96196 
 6                    0     0.63621   2.57537   2.87306 
 1                    0     0.6139    1.49134   2.96804 
 6                    0     0.88469   3.15792   1.62916 
 1                    0     1.04379   2.52198   0.75937 
 6                    0     6.53048   1.9567   -2.69249 
 6                    0     6.7802    1.89351  -1.191 
 1                    0     5.83097   1.79541  -0.65483 
 1                    0     7.28334   2.79925  -0.83869 
 16                   0     7.81077   0.44348  -0.79012 
 6                    0     7.53302   0.33192   1.01811 
 1                    0     7.89373   1.24742   1.49122 
 1                    0     8.18478  -0.48431   1.34223 
 6                    0     6.09817   0.03976   1.38133 
 6                    0     5.59544  -1.23882   1.10333 
 6                    0     4.26694  -1.57798   1.36112 
 1                    0     6.266    -1.96186   0.65091 
 6                    0     5.27258   1.01483   1.95516 
 6                    0     5.76055   2.40237   2.29607 
 1                    0     6.51887   2.37932   3.08631 
 1                    0     6.2065    2.9063    1.43249 
 1                    0     4.93047   3.01898   2.64931 
 6                    0     3.94268   0.66604   2.22133 
 1                    0     3.25686   1.39674   2.64347 
 6                    0     3.44251  -0.58881   1.92824 
 7                    0     2.03087  -0.80431   2.0604 
 6                    0     1.64761  -2.19934   2.01958 
 6                    0     0.40147  -2.56799   2.6308 
 8                    0    -0.3746   -1.79246   3.19382 
 7                    0     0.10631  -3.91061   2.48361 
 1                    0    -0.84073  -4.19247   2.71589 
 6                    0     0.87421  -4.84836   1.78362 
 8                    0     0.40331  -5.96498   1.59173 
 7                    0     2.12272  -4.47564   1.36063 
 6                    0     2.47572  -3.20891   1.47075 
 7                    0     3.7485   -2.84786   1.04912 
 6                    0     4.65225  -3.85411   0.51324 
 6                    0     4.91314  -1.8146   -2.70667 
 6                    0     3.42199  -1.63923  -2.40296 
 1                    0     2.82476  -2.23905  -3.09861 
 1                    0     3.20836  -2.03472  -1.39879 
 6                    0     2.98762  -0.19687  -2.49865 
 6                    0     3.40396   0.74584  -1.54811 
 1                    0     4.0232    0.42006  -0.71086 
 6                    0     3.04994   2.08711  -1.64858 
 1                    0     3.38434   2.81289  -0.91168 
 6                    0     2.27657   2.51523  -2.73191 
 8                    0     1.98735   3.84554  -2.81992 
 1                    0     1.49253   4.01595  -3.63615 
 6                    0     1.83205   1.5918   -3.67731 
 1                    0     1.22432   1.92448  -4.51605 
 6                    0     2.19182   0.25014  -3.55527 
 1                    0     1.85216  -0.45939  -4.30543 
 6                    0     2.76344  -5.18282  -2.32276 
 6                    0     1.55989  -4.84337  -3.20632 
 1                    0     1.89541  -4.28862  -4.09108 
 1                    0     1.12029  -5.7769   -3.58104 
 6                    0     0.49653  -4.03996  -2.48954 
 6                    0    -0.02295  -2.86029  -3.02637 
 1                    0     0.34735  -2.50352  -3.98569 
 6                    0    -1.01819  -2.13377  -2.37319 
 1                    0    -1.42119  -1.22596  -2.81462 
 6                    0    -1.51432  -2.58006  -1.14573 
 8                    0    -2.46971  -1.84634  -0.51353 
 1                    0    -2.64637  -2.25083   0.37598 
 6                    0    -1.01832  -3.77059  -0.603 
 1                    0    -1.41581  -4.13729   0.33833 
 6                    0    -0.02661  -4.48056  -1.26898 
 1                    0     0.3372   -5.39838  -0.81458 
 1                    0     5.92891   2.83844  -2.93228 
 1                    0     5.98431   1.07087  -3.03062 
 1                    0     7.47015   2.0209   -3.24932 
 1                    0     5.08656  -3.50081  -0.4274 
 1                    0     4.08045  -4.76055   0.33607 
 1                    0     5.46129  -4.06453   1.22184 
 1                    0    -0.88786   5.45469  -0.37917 
 1                    0     0.24212   6.3757   -1.39528 
 1                    0    -0.1046    6.90529   0.25896 
 1                    0    -4.16537   6.52352   3.17824 
 1                    0    -5.12479   6.89728   1.7399 
 1                    0    -3.96138   8.08326   2.35818 
 6                    0    -5.79716  -1.86275  -0.09324 
 1                    0    -4.7825   -2.43063  -1.89593 
 1                    0    -6.55442  -2.25164   0.59917 
 1                    0    -6.17047  -0.90446  -0.47908 
 1                    0    -4.8827   -1.68308   0.482 
 1                    0     2.46145  -5.75265  -1.43853 
 1                    0     3.2504   -4.27027  -1.96604 
 1                    0     3.50081  -5.77332  -2.87508 
 1                    0    -6.30407  -4.1748    4.27093 
 1                    0    -4.83431  -4.94285   3.64422 
 1                    0    -5.4493   -3.46741   2.8917 
 1                    0     5.52859  -1.28352  -1.97057 
 1                    0     5.15337  -1.41639  -3.69815 
 1                    0     5.19531  -2.87285  -2.69047 
 
 ITRead=  0  0  0  0  0  0  0  0  0  0  0  0  0  0  0  0  0  0  0  0
 ITRead=  0  0  0  0  0  0  0  0  0  0  0  0  0  0  0  0  0  0  0  0
 ITRead=  0  0  0  0  0  0  0  0  0  0  0  0  0  0  0  0  0  0  0  0
 ITRead=  0  0  0  0  0  0  0  0  0  0  0  0  0  0  0  0  0  0  0  0
 ITRead=  0  0  0  0  0  0  0  0  0  0  0  0  0  0  0  0  0  0  0  0
 ITRead=  0  0  0  0  0  0  0  0  0  0  0  0  0  0  0  0  0  0  0  0
 ITRead=  0  0  0  0  0  0  0  0  0  0  0  0  0  0  0  0  0  0  0  0
 ITRead=  0  0  0  0  0  0  0  0  0  0  0  0  0  0  0  0  0  0  0  0
 ITRead=  0  0  0  0  0  0  0  0  0  0  0
 MicOpt= -1 -1 -1 -1 -1 -1 -1 -1 -1 -1 -1 -1 -1 -1 -1 -1 -1 -1 -1 -1
 MicOpt= -1 -1 -1 -1 -1 -1 -1 -1 -1 -1 -1 -1 -1 -1 -1 -1 -1 -1 -1 -1
 MicOpt= -1 -1 -1 -1 -1 -1 -1 -1 -1 -1 -1 -1 -1 -1 -1 -1 -1 -1 -1 -1
 MicOpt= -1 -1 -1 -1 -1 -1 -1 -1 -1 -1 -1 -1 -1 -1 -1 -1 -1 -1 -1 -1
 MicOpt= -1 -1 -1 -1 -1 -1 -1 -1 -1 -1 -1 -1 -1 -1 -1 -1 -1 -1 -1 -1
 MicOpt= -1 -1 -1 -1 -1 -1 -1 -1 -1 -1 -1 -1 -1 -1 -1 -1 -1 -1 -1 -1
 MicOpt= -1 -1 -1 -1 -1 -1 -1 -1 -1 -1 -1 -1 -1 -1 -1 -1 -1 -1 -1 -1
 MicOpt= -1 -1 -1 -1 -1 -1 -1 -1 -1 -1 -1 -1 -1 -1 -1 -1 -1 -1 -1 -1
 MicOpt= -1 -1 -1 -1 -1 -1 -1 -1 -1 -1 -1
 NAtoms=    171 NQM=      171 NQMF=       0 NMMI=      0 NMMIF=      0
                NMic=       0 NMicF=      0.
                    Isotopes and Nuclear Properties:
 (Nuclear quadrupole moments (NQMom) in fm**2, nuclear magnetic moments (NMagM)
  in nuclear magnetons)

  Atom         1           2           3           4           5           6           7           8           9          10
 IAtWgt=          12          12           1          12           1           1          14           1          12          12
 AtmWgt=  12.0000000  12.0000000   1.0078250  12.0000000   1.0078250   1.0078250  14.0030740   1.0078250  12.0000000  12.0000000
 NucSpn=           0           0           1           0           1           1           2           1           0           0
 AtZEff=  -0.0000000  -0.0000000  -0.0000000  -0.0000000  -0.0000000  -0.0000000  -0.0000000  -0.0000000  -0.0000000  -0.0000000
 NQMom=    0.0000000   0.0000000   0.0000000   0.0000000   0.0000000   0.0000000   2.0440000   0.0000000   0.0000000   0.0000000
 NMagM=    0.0000000   0.0000000   2.7928460   0.0000000   2.7928460   2.7928460   0.4037610   2.7928460   0.0000000   0.0000000
 AtZNuc=   6.0000000   6.0000000   1.0000000   6.0000000   1.0000000   1.0000000   7.0000000   1.0000000   6.0000000   6.0000000

  Atom        11          12          13          14          15          16          17          18          19          20
 IAtWgt=          12          12          12           1           1          12           1          12           1          12
 AtmWgt=  12.0000000  12.0000000  12.0000000   1.0078250   1.0078250  12.0000000   1.0078250  12.0000000   1.0078250  12.0000000
 NucSpn=           0           0           0           1           1           0           1           0           1           0
 AtZEff=  -0.0000000  -0.0000000  -0.0000000  -0.0000000  -0.0000000  -0.0000000  -0.0000000  -0.0000000  -0.0000000  -0.0000000
 NQMom=    0.0000000   0.0000000   0.0000000   0.0000000   0.0000000   0.0000000   0.0000000   0.0000000   0.0000000   0.0000000
 NMagM=    0.0000000   0.0000000   0.0000000   2.7928460   2.7928460   0.0000000   2.7928460   0.0000000   2.7928460   0.0000000
 AtZNuc=   6.0000000   6.0000000   6.0000000   1.0000000   1.0000000   6.0000000   1.0000000   6.0000000   1.0000000   6.0000000

  Atom        21          22          23          24          25          26          27          28          29          30
 IAtWgt=           1           1          12           1           1           1          12          12           1           1
 AtmWgt=   1.0078250   1.0078250  12.0000000   1.0078250   1.0078250   1.0078250  12.0000000  12.0000000   1.0078250   1.0078250
 NucSpn=           1           1           0           1           1           1           0           0           1           1
 AtZEff=  -0.0000000  -0.0000000  -0.0000000  -0.0000000  -0.0000000  -0.0000000  -0.0000000  -0.0000000  -0.0000000  -0.0000000
 NQMom=    0.0000000   0.0000000   0.0000000   0.0000000   0.0000000   0.0000000   0.0000000   0.0000000   0.0000000   0.0000000
 NMagM=    2.7928460   2.7928460   0.0000000   2.7928460   2.7928460   2.7928460   0.0000000   0.0000000   2.7928460   2.7928460
 AtZNuc=   1.0000000   1.0000000   6.0000000   1.0000000   1.0000000   1.0000000   6.0000000   6.0000000   1.0000000   1.0000000

  Atom        31          32          33          34          35          36          37          38          39          40
 IAtWgt=           1          12           1           1          12           1           1           1          12          12
 AtmWgt=   1.0078250  12.0000000   1.0078250   1.0078250  12.0000000   1.0078250   1.0078250   1.0078250  12.0000000  12.0000000
 NucSpn=           1           0           1           1           0           1           1           1           0           0
 AtZEff=  -0.0000000  -0.0000000  -0.0000000  -0.0000000  -0.0000000  -0.0000000  -0.0000000  -0.0000000  -0.0000000  -0.0000000
 NQMom=    0.0000000   0.0000000   0.0000000   0.0000000   0.0000000   0.0000000   0.0000000   0.0000000   0.0000000   0.0000000
 NMagM=    2.7928460   0.0000000   2.7928460   2.7928460   0.0000000   2.7928460   2.7928460   2.7928460   0.0000000   0.0000000
 AtZNuc=   1.0000000   6.0000000   1.0000000   1.0000000   6.0000000   1.0000000   1.0000000   1.0000000   6.0000000   6.0000000

  Atom        41          42          43          44          45          46          47          48          49          50
 IAtWgt=           1           1          12           1           1          12          16          14           1           1
 AtmWgt=   1.0078250   1.0078250  12.0000000   1.0078250   1.0078250  12.0000000  15.9949146  14.0030740   1.0078250   1.0078250
 NucSpn=           1           1           0           1           1           0           0           2           1           1
 AtZEff=  -0.0000000  -0.0000000  -0.0000000  -0.0000000  -0.0000000  -0.0000000  -0.0000000  -0.0000000  -0.0000000  -0.0000000
 NQMom=    0.0000000   0.0000000   0.0000000   0.0000000   0.0000000   0.0000000   0.0000000   2.0440000   0.0000000   0.0000000
 NMagM=    2.7928460   2.7928460   0.0000000   2.7928460   2.7928460   0.0000000   0.0000000   0.4037610   2.7928460   2.7928460
 AtZNuc=   1.0000000   1.0000000   6.0000000   1.0000000   1.0000000   6.0000000   8.0000000   7.0000000   1.0000000   1.0000000

  Atom        51          52          53          54          55          56          57          58          59          60
 IAtWgt=          12          12           1           1          12          12           1          12           1          12
 AtmWgt=  12.0000000  12.0000000   1.0078250   1.0078250  12.0000000  12.0000000   1.0078250  12.0000000   1.0078250  12.0000000
 NucSpn=           0           0           1           1           0           0           1           0           1           0
 AtZEff=  -0.0000000  -0.0000000  -0.0000000  -0.0000000  -0.0000000  -0.0000000  -0.0000000  -0.0000000  -0.0000000  -0.0000000
 NQMom=    0.0000000   0.0000000   0.0000000   0.0000000   0.0000000   0.0000000   0.0000000   0.0000000   0.0000000   0.0000000
 NMagM=    0.0000000   0.0000000   2.7928460   2.7928460   0.0000000   0.0000000   2.7928460   0.0000000   2.7928460   0.0000000
 AtZNuc=   6.0000000   6.0000000   1.0000000   1.0000000   6.0000000   6.0000000   1.0000000   6.0000000   1.0000000   6.0000000

  Atom        61          62          63          64          65          66          67          68          69          70
 IAtWgt=          16           1          12           1          12           1          12          12           1           1
 AtmWgt=  15.9949146   1.0078250  12.0000000   1.0078250  12.0000000   1.0078250  12.0000000  12.0000000   1.0078250   1.0078250
 NucSpn=           0           1           0           1           0           1           0           0           1           1
 AtZEff=  -0.0000000  -0.0000000  -0.0000000  -0.0000000  -0.0000000  -0.0000000  -0.0000000  -0.0000000  -0.0000000  -0.0000000
 NQMom=    0.0000000   0.0000000   0.0000000   0.0000000   0.0000000   0.0000000   0.0000000   0.0000000   0.0000000   0.0000000
 NMagM=    0.0000000   2.7928460   0.0000000   2.7928460   0.0000000   2.7928460   0.0000000   0.0000000   2.7928460   2.7928460
 AtZNuc=   8.0000000   1.0000000   6.0000000   1.0000000   6.0000000   1.0000000   6.0000000   6.0000000   1.0000000   1.0000000

  Atom        71          72          73          74          75          76          77          78          79          80
 IAtWgt=          12          12           1          12           1          12           1          12           1          12
 AtmWgt=  12.0000000  12.0000000   1.0078250  12.0000000   1.0078250  12.0000000   1.0078250  12.0000000   1.0078250  12.0000000
 NucSpn=           0           0           1           0           1           0           1           0           1           0
 AtZEff=  -0.0000000  -0.0000000  -0.0000000  -0.0000000  -0.0000000  -0.0000000  -0.0000000  -0.0000000  -0.0000000  -0.0000000
 NQMom=    0.0000000   0.0000000   0.0000000   0.0000000   0.0000000   0.0000000   0.0000000   0.0000000   0.0000000   0.0000000
 NMagM=    0.0000000   0.0000000   2.7928460   0.0000000   2.7928460   0.0000000   2.7928460   0.0000000   2.7928460   0.0000000
 AtZNuc=   6.0000000   6.0000000   1.0000000   6.0000000   1.0000000   6.0000000   1.0000000   6.0000000   1.0000000   6.0000000

  Atom        81          82          83          84          85          86          87          88          89          90
 IAtWgt=           1          12          12           1           1          32          12           1           1          12
 AtmWgt=   1.0078250  12.0000000  12.0000000   1.0078250   1.0078250  31.9720718  12.0000000   1.0078250   1.0078250  12.0000000
 NucSpn=           1           0           0           1           1           0           0           1           1           0
 AtZEff=  -0.0000000  -0.0000000  -0.0000000  -0.0000000  -0.0000000  -0.0000000  -0.0000000  -0.0000000  -0.0000000  -0.0000000
 NQMom=    0.0000000   0.0000000   0.0000000   0.0000000   0.0000000   0.0000000   0.0000000   0.0000000   0.0000000   0.0000000
 NMagM=    2.7928460   0.0000000   0.0000000   2.7928460   2.7928460   0.0000000   0.0000000   2.7928460   2.7928460   0.0000000
 AtZNuc=   1.0000000   6.0000000   6.0000000   1.0000000   1.0000000  16.0000000   6.0000000   1.0000000   1.0000000   6.0000000

  Atom        91          92          93          94          95          96          97          98          99         100
 IAtWgt=          12          12           1          12          12           1           1           1          12           1
 AtmWgt=  12.0000000  12.0000000   1.0078250  12.0000000  12.0000000   1.0078250   1.0078250   1.0078250  12.0000000   1.0078250
 NucSpn=           0           0           1           0           0           1           1           1           0           1
 AtZEff=  -0.0000000  -0.0000000  -0.0000000  -0.0000000  -0.0000000  -0.0000000  -0.0000000  -0.0000000  -0.0000000  -0.0000000
 NQMom=    0.0000000   0.0000000   0.0000000   0.0000000   0.0000000   0.0000000   0.0000000   0.0000000   0.0000000   0.0000000
 NMagM=    0.0000000   0.0000000   2.7928460   0.0000000   0.0000000   2.7928460   2.7928460   2.7928460   0.0000000   2.7928460
 AtZNuc=   6.0000000   6.0000000   1.0000000   6.0000000   6.0000000   1.0000000   1.0000000   1.0000000   6.0000000   1.0000000

  Atom       101         102         103         104         105         106         107         108         109         110
 IAtWgt=          12          14          12          12          16          14           1          12          16          14
 AtmWgt=  12.0000000  14.0030740  12.0000000  12.0000000  15.9949146  14.0030740   1.0078250  12.0000000  15.9949146  14.0030740
 NucSpn=           0           2           0           0           0           2           1           0           0           2
 AtZEff=  -0.0000000  -0.0000000  -0.0000000  -0.0000000  -0.0000000  -0.0000000  -0.0000000  -0.0000000  -0.0000000  -0.0000000
 NQMom=    0.0000000   2.0440000   0.0000000   0.0000000   0.0000000   2.0440000   0.0000000   0.0000000   0.0000000   2.0440000
 NMagM=    0.0000000   0.4037610   0.0000000   0.0000000   0.0000000   0.4037610   2.7928460   0.0000000   0.0000000   0.4037610
 AtZNuc=   6.0000000   7.0000000   6.0000000   6.0000000   8.0000000   7.0000000   1.0000000   6.0000000   8.0000000   7.0000000

  Atom       111         112         113         114         115         116         117         118         119         120
 IAtWgt=          12          14          12          12          12           1           1          12          12           1
 AtmWgt=  12.0000000  14.0030740  12.0000000  12.0000000  12.0000000   1.0078250   1.0078250  12.0000000  12.0000000   1.0078250
 NucSpn=           0           2           0           0           0           1           1           0           0           1
 AtZEff=  -0.0000000  -0.0000000  -0.0000000  -0.0000000  -0.0000000  -0.0000000  -0.0000000  -0.0000000  -0.0000000  -0.0000000
 NQMom=    0.0000000   2.0440000   0.0000000   0.0000000   0.0000000   0.0000000   0.0000000   0.0000000   0.0000000   0.0000000
 NMagM=    0.0000000   0.4037610   0.0000000   0.0000000   0.0000000   2.7928460   2.7928460   0.0000000   0.0000000   2.7928460
 AtZNuc=   6.0000000   7.0000000   6.0000000   6.0000000   6.0000000   1.0000000   1.0000000   6.0000000   6.0000000   1.0000000

  Atom       121         122         123         124         125         126         127         128         129         130
 IAtWgt=          12           1          12          16           1          12           1          12           1          12
 AtmWgt=  12.0000000   1.0078250  12.0000000  15.9949146   1.0078250  12.0000000   1.0078250  12.0000000   1.0078250  12.0000000
 NucSpn=           0           1           0           0           1           0           1           0           1           0
 AtZEff=  -0.0000000  -0.0000000  -0.0000000  -0.0000000  -0.0000000  -0.0000000  -0.0000000  -0.0000000  -0.0000000  -0.0000000
 NQMom=    0.0000000   0.0000000   0.0000000   0.0000000   0.0000000   0.0000000   0.0000000   0.0000000   0.0000000   0.0000000
 NMagM=    0.0000000   2.7928460   0.0000000   0.0000000   2.7928460   0.0000000   2.7928460   0.0000000   2.7928460   0.0000000
 AtZNuc=   6.0000000   1.0000000   6.0000000   8.0000000   1.0000000   6.0000000   1.0000000   6.0000000   1.0000000   6.0000000

  Atom       131         132         133         134         135         136         137         138         139         140
 IAtWgt=          12           1           1          12          12           1          12           1          12          16
 AtmWgt=  12.0000000   1.0078250   1.0078250  12.0000000  12.0000000   1.0078250  12.0000000   1.0078250  12.0000000  15.9949146
 NucSpn=           0           1           1           0           0           1           0           1           0           0
 AtZEff=  -0.0000000  -0.0000000  -0.0000000  -0.0000000  -0.0000000  -0.0000000  -0.0000000  -0.0000000  -0.0000000  -0.0000000
 NQMom=    0.0000000   0.0000000   0.0000000   0.0000000   0.0000000   0.0000000   0.0000000   0.0000000   0.0000000   0.0000000
 NMagM=    0.0000000   2.7928460   2.7928460   0.0000000   0.0000000   2.7928460   0.0000000   2.7928460   0.0000000   0.0000000
 AtZNuc=   6.0000000   1.0000000   1.0000000   6.0000000   6.0000000   1.0000000   6.0000000   1.0000000   6.0000000   8.0000000

  Atom       141         142         143         144         145         146         147         148         149         150
 IAtWgt=           1          12           1          12           1           1           1           1           1           1
 AtmWgt=   1.0078250  12.0000000   1.0078250  12.0000000   1.0078250   1.0078250   1.0078250   1.0078250   1.0078250   1.0078250
 NucSpn=           1           0           1           0           1           1           1           1           1           1
 AtZEff=  -0.0000000  -0.0000000  -0.0000000  -0.0000000  -0.0000000  -0.0000000  -0.0000000  -0.0000000  -0.0000000  -0.0000000
 NQMom=    0.0000000   0.0000000   0.0000000   0.0000000   0.0000000   0.0000000   0.0000000   0.0000000   0.0000000   0.0000000
 NMagM=    2.7928460   0.0000000   2.7928460   0.0000000   2.7928460   2.7928460   2.7928460   2.7928460   2.7928460   2.7928460
 AtZNuc=   1.0000000   6.0000000   1.0000000   6.0000000   1.0000000   1.0000000   1.0000000   1.0000000   1.0000000   1.0000000

  Atom       151         152         153         154         155         156         157         158         159         160
 IAtWgt=           1           1           1           1           1           1           1          12           1           1
 AtmWgt=   1.0078250   1.0078250   1.0078250   1.0078250   1.0078250   1.0078250   1.0078250  12.0000000   1.0078250   1.0078250
 NucSpn=           1           1           1           1           1           1           1           0           1           1
 AtZEff=  -0.0000000  -0.0000000  -0.0000000  -0.0000000  -0.0000000  -0.0000000  -0.0000000  -0.0000000  -0.0000000  -0.0000000
 NQMom=    0.0000000   0.0000000   0.0000000   0.0000000   0.0000000   0.0000000   0.0000000   0.0000000   0.0000000   0.0000000
 NMagM=    2.7928460   2.7928460   2.7928460   2.7928460   2.7928460   2.7928460   2.7928460   0.0000000   2.7928460   2.7928460
 AtZNuc=   1.0000000   1.0000000   1.0000000   1.0000000   1.0000000   1.0000000   1.0000000   6.0000000   1.0000000   1.0000000

  Atom       161         162         163         164         165         166         167         168         169         170
 IAtWgt=           1           1           1           1           1           1           1           1           1           1
 AtmWgt=   1.0078250   1.0078250   1.0078250   1.0078250   1.0078250   1.0078250   1.0078250   1.0078250   1.0078250   1.0078250
 NucSpn=           1           1           1           1           1           1           1           1           1           1
 AtZEff=  -0.0000000  -0.0000000  -0.0000000  -0.0000000  -0.0000000  -0.0000000  -0.0000000  -0.0000000  -0.0000000  -0.0000000
 NQMom=    0.0000000   0.0000000   0.0000000   0.0000000   0.0000000   0.0000000   0.0000000   0.0000000   0.0000000   0.0000000
 NMagM=    2.7928460   2.7928460   2.7928460   2.7928460   2.7928460   2.7928460   2.7928460   2.7928460   2.7928460   2.7928460
 AtZNuc=   1.0000000   1.0000000   1.0000000   1.0000000   1.0000000   1.0000000   1.0000000   1.0000000   1.0000000   1.0000000

  Atom       171
 IAtWgt=           1
 AtmWgt=   1.0078250
 NucSpn=           1
 AtZEff=  -0.0000000
 NQMom=    0.0000000
 NMagM=    2.7928460
 AtZNuc=   1.0000000
 Leave Link  101 at Sat Apr  2 16:42:32 2022, MaxMem=  4294967296 cpu:              11.4 elap:               0.2
 (Enter /share/apps/g16/l202.exe)
 Stoichiometry    C68H90N6O6S
 Framework group  C1[X(C68H90N6O6S)]
 Deg. of freedom   507
 Full point group                 C1      NOp   1
 Largest Abelian subgroup         C1      NOp   1
 Largest concise Abelian subgroup C1      NOp   1
                         Standard orientation:                         
 ---------------------------------------------------------------------
 Center     Atomic      Atomic             Coordinates (Angstroms)
 Number     Number       Type             X           Y           Z
 ---------------------------------------------------------------------
      1          6           0        0.109137   -0.133542    0.654421
      2          6           0        1.384328   -0.630849    0.822889
      3          1           0        1.991699   -0.799307   -0.068914
      4          6           0       -0.219180    0.307334   -0.626346
      5          1           0        0.532466    0.290421   -1.418346
      6          1           0       -0.563828   -0.010131    1.496703
      7          7           0       -1.377913    0.838741   -0.939829
      8          1           0       -2.147288    0.741322   -0.276262
      9          6           0       -1.636506    1.590594   -2.153293
     10          6           0       -3.081046    1.503983   -2.590942
     11          6           0       -3.942378    0.413291   -2.514299
     12          6           0       -3.505435    2.738688   -3.083596
     13          6           0       -5.258289    0.577317   -2.955796
     14          1           0       -3.603923   -0.532905   -2.092161
     15          1           0       -5.950617   -0.258755   -2.904788
     16          6           0       -5.684784    1.804673   -3.470237
     17          1           0       -6.709718    1.916073   -3.810202
     18          6           0       -4.811047    2.891858   -3.538819
     19          1           0       -5.156147    3.849622   -3.918492
     20          6           0       -2.397221    3.763772   -2.979539
     21          1           0       -1.918880    3.913749   -3.955672
     22          1           0       -2.757955    4.738410   -2.636044
     23          6           0       -1.423953    3.111859   -1.976760
     24          1           0       -1.721388    3.372417   -0.952817
     25          1           0       -0.378474    3.404673   -2.112461
     26          1           0       -0.966240    1.193333   -2.929036
     27          6           0       -5.540428   -2.859360   -1.222704
     28          6           0       -4.977823   -4.162572   -0.652873
     29          1           0       -5.738928   -4.670312   -0.045746
     30          1           0       -4.659083   -4.850842   -1.441340
     31          1           0       -4.115708   -3.962857   -0.009225
     32          6           0       -6.821598   -3.093724   -2.031900
     33          1           0       -7.573936   -3.548929   -1.372141
     34          1           0       -7.234977   -2.122646   -2.337581
     35          6           0       -6.624034   -3.966017   -3.269720
     36          1           0       -7.544886   -4.034372   -3.856287
     37          1           0       -5.843324   -3.549484   -3.916334
     38          1           0       -6.326545   -4.983744   -3.000827
     39          6           0       -5.313893   -3.980230    3.850290
     40          6           0       -4.466317   -3.145379    4.808273
     41          1           0       -4.946596   -2.174689    4.979090
     42          1           0       -4.405239   -3.639725    5.783115
     43          6           0       -3.035834   -2.927340    4.289965
     44          1           0       -2.461129   -2.290015    4.967972
     45          1           0       -2.520623   -3.888048    4.210299
     46          6           0       -3.055918   -2.305938    2.912980
     47          8           0       -2.843663   -2.982826    1.895016
     48          7           0       -3.427653   -1.018268    2.856028
     49          1           0       -3.534918   -0.476483    3.701533
     50          1           0       -3.495721   -0.525050    1.970460
     51          6           0       -4.139077    7.015466    2.201058
     52          6           0       -3.049039    6.398829    1.317966
     53          1           0       -3.017459    6.922056    0.354437
     54          1           0       -2.069093    6.540941    1.788021
     55          6           0       -3.275597    4.923107    1.091256
     56          6           0       -4.237534    4.474032    0.180105
     57          1           0       -4.798155    5.197451   -0.408359
     58          6           0       -4.493442    3.116660    0.004659
     59          1           0       -5.229809    2.774966   -0.719816
     60          6           0       -3.768367    2.191286    0.749790
     61          8           0       -3.922878    0.832574    0.579941
     62          1           0       -4.533480    0.646617   -0.155819
     63          6           0       -2.802487    2.608723    1.660457
     64          1           0       -2.233408    1.873863    2.224261
     65          6           0       -2.565354    3.969148    1.826177
     66          1           0       -1.803848    4.289580    2.533330
     67          6           0        0.046693    6.026381   -0.376269
     68          6           0        1.207660    5.164491    0.128995
     69          1           0        1.404242    4.369850   -0.596279
     70          1           0        2.116597    5.778115    0.173896
     71          6           0        0.945304    4.545795    1.481141
     72          6           0        0.753426    5.345050    2.614499
     73          1           0        0.808789    6.427741    2.520930
     74          6           0        0.501685    4.771915    3.858698
     75          1           0        0.358227    5.407504    4.727614
     76          6           0        0.439678    3.383721    3.991399
     77          1           0        0.248902    2.936287    4.961955
     78          6           0        0.636211    2.575374    2.873059
     79          1           0        0.613897    1.491343    2.968044
     80          6           0        0.884690    3.157919    1.629160
     81          1           0        1.043787    2.521979    0.759374
     82          6           0        6.530483    1.956704   -2.692492
     83          6           0        6.780196    1.893506   -1.190998
     84          1           0        5.830974    1.795411   -0.654829
     85          1           0        7.283338    2.799248   -0.838686
     86         16           0        7.810767    0.443476   -0.790124
     87          6           0        7.533015    0.331920    1.018105
     88          1           0        7.893733    1.247422    1.491224
     89          1           0        8.184785   -0.484314    1.342227
     90          6           0        6.098169    0.039764    1.381330
     91          6           0        5.595436   -1.238823    1.103332
     92          6           0        4.266944   -1.577979    1.361123
     93          1           0        6.265997   -1.961858    0.650905
     94          6           0        5.272580    1.014827    1.955163
     95          6           0        5.760551    2.402368    2.296066
     96          1           0        6.518872    2.379317    3.086307
     97          1           0        6.206498    2.906304    1.432489
     98          1           0        4.930466    3.018982    2.649309
     99          6           0        3.942684    0.666040    2.221328
    100          1           0        3.256858    1.396742    2.643465
    101          6           0        3.442510   -0.588808    1.928242
    102          7           0        2.030866   -0.804310    2.060395
    103          6           0        1.647605   -2.199341    2.019575
    104          6           0        0.401473   -2.567991    2.630797
    105          8           0       -0.374599   -1.792457    3.193821
    106          7           0        0.106314   -3.910605    2.483610
    107          1           0       -0.840729   -4.192470    2.715894
    108          6           0        0.874210   -4.848361    1.783622
    109          8           0        0.403312   -5.964984    1.591728
    110          7           0        2.122719   -4.475641    1.360633
    111          6           0        2.475719   -3.208913    1.470748
    112          7           0        3.748500   -2.847855    1.049118
    113          6           0        4.652252   -3.854108    0.513239
    114          6           0        4.913142   -1.814597   -2.706665
    115          6           0        3.421986   -1.639233   -2.402959
    116          1           0        2.824759   -2.239047   -3.098610
    117          1           0        3.208362   -2.034717   -1.398790
    118          6           0        2.987616   -0.196873   -2.498651
    119          6           0        3.403960    0.745840   -1.548113
    120          1           0        4.023205    0.420059   -0.710864
    121          6           0        3.049944    2.087110   -1.648582
    122          1           0        3.384335    2.812887   -0.911678
    123          6           0        2.276566    2.515234   -2.731908
    124          8           0        1.987354    3.845538   -2.819919
    125          1           0        1.492534    4.015947   -3.636152
    126          6           0        1.832050    1.591795   -3.677311
    127          1           0        1.224315    1.924482   -4.516055
    128          6           0        2.191821    0.250136   -3.555272
    129          1           0        1.852162   -0.459387   -4.305431
    130          6           0        2.763441   -5.182822   -2.322763
    131          6           0        1.559886   -4.843368   -3.206316
    132          1           0        1.895410   -4.288617   -4.091084
    133          1           0        1.120287   -5.776902   -3.581039
    134          6           0        0.496534   -4.039959   -2.489535
    135          6           0       -0.022945   -2.860286   -3.026374
    136          1           0        0.347350   -2.503517   -3.985685
    137          6           0       -1.018191   -2.133770   -2.373195
    138          1           0       -1.421187   -1.225955   -2.814619
    139          6           0       -1.514317   -2.580055   -1.145731
    140          8           0       -2.469705   -1.846344   -0.513529
    141          1           0       -2.646370   -2.250826    0.375980
    142          6           0       -1.018323   -3.770592   -0.602995
    143          1           0       -1.415814   -4.137292    0.338325
    144          6           0       -0.026608   -4.480560   -1.268977
    145          1           0        0.337197   -5.398384   -0.814581
    146          1           0        5.928907    2.838444   -2.932276
    147          1           0        5.984309    1.070868   -3.030615
    148          1           0        7.470152    2.020903   -3.249321
    149          1           0        5.086562   -3.500812   -0.427404
    150          1           0        4.080455   -4.760553    0.336065
    151          1           0        5.461295   -4.064526    1.221839
    152          1           0       -0.887857    5.454688   -0.379169
    153          1           0        0.242116    6.375704   -1.395282
    154          1           0       -0.104595    6.905291    0.258963
    155          1           0       -4.165372    6.523523    3.178240
    156          1           0       -5.124786    6.897280    1.739895
    157          1           0       -3.961384    8.083256    2.358180
    158          6           0       -5.797162   -1.862749   -0.093240
    159          1           0       -4.782501   -2.430632   -1.895927
    160          1           0       -6.554415   -2.251645    0.599167
    161          1           0       -6.170474   -0.904461   -0.479075
    162          1           0       -4.882703   -1.683084    0.482004
    163          1           0        2.461449   -5.752652   -1.438531
    164          1           0        3.250402   -4.270269   -1.966035
    165          1           0        3.500810   -5.773321   -2.875084
    166          1           0       -6.304071   -4.174798    4.270933
    167          1           0       -4.834307   -4.942850    3.644217
    168          1           0       -5.449296   -3.467414    2.891695
    169          1           0        5.528585   -1.283523   -1.970566
    170          1           0        5.153368   -1.416391   -3.698146
    171          1           0        5.195309   -2.872846   -2.690468
 ---------------------------------------------------------------------
 Rotational constants (GHZ):           0.0295316           0.0233244           0.0185667
 Leave Link  202 at Sat Apr  2 16:42:32 2022, MaxMem=  4294967296 cpu:               4.0 elap:               0.1
 (Enter /share/apps/g16/l301.exe)
 Standard basis: 6-311++G(d,p) (5D, 7F)
 Ernie: Thresh=  0.10000D-02 Tol=  0.10000D-05 Strict=F.
 There are  2501 symmetry adapted cartesian basis functions of A   symmetry.
 There are  2420 symmetry adapted basis functions of A   symmetry.
  2420 basis functions,  3740 primitive gaussians,  2501 cartesian basis functions
   302 alpha electrons      302 beta electrons
       nuclear repulsion energy     16455.2798453841 Hartrees.
 IExCor= 1009 DFT=T Ex+Corr=PBE1PBE ExCW=0 ScaHFX=  0.250000
 ScaDFX=  0.750000  0.750000  1.000000  1.000000 ScalE2=  1.000000  1.000000
 IRadAn=      5 IRanWt=     -1 IRanGd=            0 ICorTp=0 IEmpDi=  4
 NAtoms=  171 NActive=  171 NUniq=  171 SFac= 1.00D+00 NAtFMM=   60 NAOKFM=T Big=T
 Integral buffers will be    131072 words long.
 Raffenetti 2 integral format.
 Two-electron integral symmetry is turned on.
 Using the following non-standard input for PCM:
 eps=4.0
 --- end of non-standard input.
 ------------------------------------------------------------------------------
 Polarizable Continuum Model (PCM)
 =================================
 Model                : C-PCM.
 Atomic radii         : UFF (Universal Force Field).
 Polarization charges : Total charges.
 Charge compensation  : None.
 Solution method      : On-the-fly selection.
 Cavity type          : Scaled VdW (van der Waals Surface) (Alpha=1.100).
 Cavity algorithm     : GePol (No added spheres)
                        Default sphere list used, NSphG=  171.
                        Lebedev-Laikov grids with approx.  5.0 points / Ang**2.
                        Smoothing algorithm: York/Karplus (Gamma=1.0000).
                        Polarization charges: spherical gaussians, with
                                              point-specific exponents (IZeta= 3).
                        Self-potential: point-specific (ISelfS= 7).
                        Self-field    : sphere-specific E.n sum rule (ISelfD= 2).
 Solvent              : Water, Eps=   4.000000 Eps(inf)=   1.777849
 ------------------------------------------------------------------------------
 GePol: Number of generator spheres                  =     171
 GePol: Total number of spheres                      =     171
 GePol: Number of exposed spheres                    =     171 (100.00%)
 GePol: Number of points                             =    8918
 GePol: Average weight of points                     =       0.12
 GePol: Minimum weight of points                     =   0.16D-11
 GePol: Maximum weight of points                     =    0.20577
 GePol: Number of points with low weight             =     829
 GePol: Fraction of low-weight points (<1% of avg)   =       9.30%
 GePol: Cavity surface area                          =   1069.550 Ang**2
 GePol: Cavity volume                                =   1579.637 Ang**3
 Leave Link  301 at Sat Apr  2 16:42:32 2022, MaxMem=  4294967296 cpu:               4.4 elap:               0.1
 (Enter /share/apps/g16/l302.exe)
 NPDir=0 NMtPBC=     1 NCelOv=     1 NCel=       1 NClECP=     1 NCelD=      1
         NCelK=      1 NCelE2=     1 NClLst=     1 CellRange=     0.0.
 One-electron integrals computed using PRISM.
 One-electron integral symmetry used in STVInt
 NBasis=  2420 RedAO= T EigKep=  1.01D-06  NBF=  2420
 NBsUse=  2376 1.00D-06 EigRej=  9.96D-07 NBFU=  2376
 Precomputing XC quadrature grid using
 IXCGrd= 4 IRadAn=           5 IRanWt=          -1 IRanGd=           0 AccXCQ= 0.00D+00.
 Generated NRdTot=       0 NPtTot=           0 NUsed=           0 NTot=          32
 NSgBfM=  2107  2077  2077  2090  2107 MxSgAt=   171 MxSgA2=   171.
 Leave Link  302 at Sat Apr  2 16:42:58 2022, MaxMem=  4294967296 cpu:            1607.6 elap:              25.2
 (Enter /share/apps/g16/l303.exe)
 DipDrv:  MaxL=1.
 Leave Link  303 at Sat Apr  2 16:43:00 2022, MaxMem=  4294967296 cpu:              81.1 elap:               1.8
 (Enter /share/apps/g16/l401.exe)
 ExpMin= 3.60D-02 ExpMax= 9.34D+04 ExpMxC= 3.17D+03 IAcc=3 IRadAn=         5 AccDes= 0.00D+00
 Harris functional with IExCor= 1009 and IRadAn=       5 diagonalized for initial guess.
 HarFok:  IExCor= 1009 AccDes= 0.00D+00 IRadAn=         5 IDoV= 1 UseB2=F ITyADJ=14
 ICtDFT=  3500011 ScaDFX=  1.000000  1.000000  1.000000  1.000000
 FoFCou: FMM=F IPFlag=           0 FMFlag=      100000 FMFlg1=        2001
         NFxFlg=           0 DoJE=T BraDBF=F KetDBF=T FulRan=T
         wScrn=  0.000000 ICntrl=       500 IOpCl=  0 I1Cent=   200000004 NGrid=           0
         NMat0=    1 NMatS0=      1 NMatT0=    0 NMatD0=    1 NMtDS0=    0 NMtDT0=    0
 Petite list used in FoFCou.
 Harris En= -3821.40151253360    
 JPrj=0 DoOrth=F DoCkMO=F.
 Leave Link  401 at Sat Apr  2 16:43:41 2022, MaxMem=  4294967296 cpu:            2577.9 elap:              40.5
 (Enter /share/apps/g16/l502.exe)
 Integral symmetry usage will be decided dynamically.
 Closed shell SCF:
 Using DIIS extrapolation, IDIIS=  1040.
 NGot=  4294967296 LenX=  4282273394 LenY=  4276015892
 Requested convergence on RMS density matrix=1.00D-08 within  32 cycles.
 Requested convergence on MAX density matrix=1.00D-06.
 Requested convergence on             energy=1.00D-06.
 No special actions if energy rises.
 Fock matrices will be formed incrementally for  20 cycles.

 Cycle   1  Pass 1  IDiag  1:
 FoFJK:  IHMeth= 1 ICntrl=       0 DoSepK=F KAlg= 0 I1Cent=           0 FoldK=F
 IRaf= 750000000 NMat=       1 IRICut=       1 DoRegI=T DoRafI=F ISym2E= 0 IDoP0=0 IntGTp=1.
 FoFCou: FMM=T IPFlag=           0 FMFlag=      100000 FMFlg1=        2001
         NFxFlg=           0 DoJE=F BraDBF=F KetDBF=F FulRan=T
         wScrn=  0.000000 ICntrl=         0 IOpCl=  0 I1Cent=           0 NGrid=           0
         NMat0=    1 NMatS0=      1 NMatT0=    0 NMatD0=    1 NMtDS0=    0 NMtDT0=    0
 Symmetry not used in FoFCou.
 FMM levels:  10  Number of levels for PrismC:   9
 Inv3:  Mode=1 IEnd=   238592172.
 Iteration    1 A*A^-1 deviation from unit magnitude is 1.60D-14 for   4448.
 Iteration    1 A*A^-1 deviation from orthogonality  is 4.70D-15 for   8911    344.
 Iteration    1 A^-1*A deviation from unit magnitude is 1.37D-14 for   2225.
 Iteration    1 A^-1*A deviation from orthogonality  is 2.42D-15 for   7685   3530.
 E= -3818.19081066685    
 DIIS: error= 1.10D-02 at cycle   1 NSaved=   1.
 NSaved= 1 IEnMin= 1 EnMin= -3818.19081066685     IErMin= 1 ErrMin= 1.10D-02
 ErrMax= 1.10D-02  0.00D+00 EMaxC= 1.00D-01 BMatC= 2.43D+00 BMatP= 2.43D+00
 IDIUse=3 WtCom= 8.90D-01 WtEn= 1.10D-01
 Coeff-Com:  0.100D+01
 Coeff-En:   0.100D+01
 Coeff:      0.100D+01
 Gap=     0.209 Goal=   None    Shift=    0.000
 GapD=    0.209 DampG=1.000 DampE=0.500 DampFc=0.5000 IDamp=-1.
 Damping current iteration by 5.00D-01
 RMSDP=1.89D-02 MaxDP=4.26D+00              OVMax= 2.57D-01

 Cycle   2  Pass 1  IDiag  1:
 RMSU=  8.25D-03    CP:  8.83D-01
 E= -3819.09295068232     Delta-E=       -0.902140015463 Rises=F Damp=T
 DIIS: error= 5.04D-03 at cycle   2 NSaved=   2.
 NSaved= 2 IEnMin= 2 EnMin= -3819.09295068232     IErMin= 2 ErrMin= 5.04D-03
 ErrMax= 5.04D-03  0.00D+00 EMaxC= 1.00D-01 BMatC= 1.98D-01 BMatP= 2.43D+00
 IDIUse=3 WtCom= 9.50D-01 WtEn= 5.04D-02
 Coeff-Com:  0.493D-01 0.951D+00
 Coeff-En:   0.126D+00 0.874D+00
 Coeff:      0.532D-01 0.947D+00
 Gap=     0.248 Goal=   None    Shift=    0.000
 RMSDP=7.75D-03 MaxDP=2.29D+00 DE=-9.02D-01 OVMax= 1.93D-01

 Cycle   3  Pass 1  IDiag  1:
 RMSU=  5.04D-03    CP:  7.97D-01  4.15D-01
 E= -3820.09087493313     Delta-E=       -0.997924250809 Rises=F Damp=F
 DIIS: error= 1.21D-02 at cycle   3 NSaved=   3.
 NSaved= 3 IEnMin= 3 EnMin= -3820.09087493313     IErMin= 2 ErrMin= 5.04D-03
 ErrMax= 1.21D-02  0.00D+00 EMaxC= 1.00D-01 BMatC= 2.46D-01 BMatP= 1.98D-01
 IDIUse=2 WtCom= 0.00D+00 WtEn= 1.00D+00
 Coeff-En:   0.000D+00 0.000D+00 0.100D+01
 Coeff:      0.000D+00 0.000D+00 0.100D+01
 Gap=     0.163 Goal=   None    Shift=    0.000
 RMSDP=1.05D-02 MaxDP=3.15D+00 DE=-9.98D-01 OVMax= 3.74D-01

 Cycle   4  Pass 1  IDiag  1:
 RMSU=  6.21D-03    CP:  8.10D-01  1.30D+00  1.58D-01
 E= -3819.18472373905     Delta-E=        0.906151194074 Rises=F Damp=F
 DIIS: error= 2.62D-02 at cycle   4 NSaved=   4.
 NSaved= 4 IEnMin= 3 EnMin= -3820.09087493313     IErMin= 2 ErrMin= 5.04D-03
 ErrMax= 2.62D-02  0.00D+00 EMaxC= 1.00D-01 BMatC= 1.31D+00 BMatP= 1.98D-01
 IDIUse=2 WtCom= 0.00D+00 WtEn= 1.00D+00
 Coeff-En:   0.000D+00 0.000D+00 0.791D+00 0.209D+00
 Coeff:      0.000D+00 0.000D+00 0.791D+00 0.209D+00
 Gap=     0.148 Goal=   None    Shift=    0.000
 RMSDP=5.64D-03 MaxDP=1.80D+00 DE= 9.06D-01 OVMax= 1.52D-01

 Cycle   5  Pass 1  IDiag  1:
 RMSU=  1.30D-03    CP:  7.76D-01  8.47D-01  5.14D-01  4.55D-01
 E= -3820.21945227708     Delta-E=       -1.034728538027 Rises=F Damp=F
 DIIS: error= 6.71D-03 at cycle   5 NSaved=   5.
 NSaved= 5 IEnMin= 5 EnMin= -3820.21945227708     IErMin= 2 ErrMin= 5.04D-03
 ErrMax= 6.71D-03  0.00D+00 EMaxC= 1.00D-01 BMatC= 9.27D-02 BMatP= 1.98D-01
 IDIUse=3 WtCom= 9.33D-01 WtEn= 6.71D-02
 Coeff-Com:  0.356D-02 0.696D-02 0.343D+00-0.329D-01 0.679D+00
 Coeff-En:   0.000D+00 0.000D+00 0.322D+00 0.000D+00 0.678D+00
 Coeff:      0.332D-02 0.649D-02 0.342D+00-0.307D-01 0.679D+00
 Gap=     0.129 Goal=   None    Shift=    0.000
 RMSDP=2.18D-03 MaxDP=6.32D-01 DE=-1.03D+00 OVMax= 5.46D-02

 Cycle   6  Pass 1  IDiag  1:
 RMSU=  5.31D-04    CP:  7.74D-01  6.73D-01  6.98D-01  2.63D-01  7.52D-01
 E= -3820.29663547810     Delta-E=       -0.077183201021 Rises=F Damp=F
 DIIS: error= 6.70D-04 at cycle   6 NSaved=   6.
 NSaved= 6 IEnMin= 6 EnMin= -3820.29663547810     IErMin= 6 ErrMin= 6.70D-04
 ErrMax= 6.70D-04  0.00D+00 EMaxC= 1.00D-01 BMatC= 2.41D-03 BMatP= 9.27D-02
 IDIUse=3 WtCom= 9.93D-01 WtEn= 6.70D-03
 Coeff-Com:  0.171D-02-0.126D-02 0.160D+00-0.521D-01 0.461D+00 0.431D+00
 Coeff-En:   0.000D+00 0.000D+00 0.000D+00 0.000D+00 0.000D+00 0.100D+01
 Coeff:      0.170D-02-0.125D-02 0.159D+00-0.518D-01 0.458D+00 0.435D+00
 Gap=     0.127 Goal=   None    Shift=    0.000
 RMSDP=3.26D-04 MaxDP=8.20D-02 DE=-7.72D-02 OVMax= 8.97D-03

 Cycle   7  Pass 1  IDiag  1:
 RMSU=  1.37D-04    CP:  7.73D-01  6.82D-01  6.88D-01  2.74D-01  8.02D-01
                    CP:  5.10D-01
 E= -3820.29879734220     Delta-E=       -0.002161864097 Rises=F Damp=F
 DIIS: error= 1.00D-04 at cycle   7 NSaved=   7.
 NSaved= 7 IEnMin= 7 EnMin= -3820.29879734220     IErMin= 7 ErrMin= 1.00D-04
 ErrMax= 1.00D-04  0.00D+00 EMaxC= 1.00D-01 BMatC= 6.77D-05 BMatP= 2.41D-03
 IDIUse=3 WtCom= 9.99D-01 WtEn= 1.00D-03
 Coeff-Com:  0.665D-03-0.628D-03 0.565D-01-0.224D-01 0.168D+00 0.186D+00
 Coeff-Com:  0.613D+00
 Coeff-En:   0.000D+00 0.000D+00 0.000D+00 0.000D+00 0.000D+00 0.000D+00
 Coeff-En:   0.100D+01
 Coeff:      0.664D-03-0.628D-03 0.564D-01-0.223D-01 0.167D+00 0.186D+00
 Coeff:      0.613D+00
 Gap=     0.127 Goal=   None    Shift=    0.000
 RMSDP=7.96D-05 MaxDP=1.24D-02 DE=-2.16D-03 OVMax= 1.55D-03

 Cycle   8  Pass 1  IDiag  1:
 RMSU=  5.38D-05    CP:  7.73D-01  6.79D-01  6.90D-01  2.72D-01  8.17D-01
                    CP:  5.24D-01  6.88D-01
 E= -3820.29884905439     Delta-E=       -0.000051712195 Rises=F Damp=F
 DIIS: error= 5.73D-05 at cycle   8 NSaved=   8.
 NSaved= 8 IEnMin= 8 EnMin= -3820.29884905439     IErMin= 8 ErrMin= 5.73D-05
 ErrMax= 5.73D-05  0.00D+00 EMaxC= 1.00D-01 BMatC= 1.37D-05 BMatP= 6.77D-05
 IDIUse=1 WtCom= 1.00D+00 WtEn= 0.00D+00
 Coeff-Com:  0.196D-03-0.404D-03 0.729D-02-0.371D-02 0.171D-01 0.271D-01
 Coeff-Com:  0.348D+00 0.604D+00
 Coeff:      0.196D-03-0.404D-03 0.729D-02-0.371D-02 0.171D-01 0.271D-01
 Coeff:      0.348D+00 0.604D+00
 Gap=     0.127 Goal=   None    Shift=    0.000
 RMSDP=2.64D-05 MaxDP=3.59D-03 DE=-5.17D-05 OVMax= 6.15D-04

 Cycle   9  Pass 1  IDiag  1:
 RMSU=  1.44D-05    CP:  7.73D-01  6.78D-01  6.91D-01  2.72D-01  8.12D-01
                    CP:  5.26D-01  7.80D-01  7.31D-01
 E= -3820.29886107696     Delta-E=       -0.000012022567 Rises=F Damp=F
 DIIS: error= 1.48D-05 at cycle   9 NSaved=   9.
 NSaved= 9 IEnMin= 9 EnMin= -3820.29886107696     IErMin= 9 ErrMin= 1.48D-05
 ErrMax= 1.48D-05  0.00D+00 EMaxC= 1.00D-01 BMatC= 1.01D-06 BMatP= 1.37D-05
 IDIUse=1 WtCom= 1.00D+00 WtEn= 0.00D+00
 Coeff-Com:  0.819D-04-0.288D-03 0.402D-03-0.458D-03-0.189D-02 0.314D-02
 Coeff-Com:  0.154D+00 0.338D+00 0.506D+00
 Coeff:      0.819D-04-0.288D-03 0.402D-03-0.458D-03-0.189D-02 0.314D-02
 Coeff:      0.154D+00 0.338D+00 0.506D+00
 Gap=     0.127 Goal=   None    Shift=    0.000
 RMSDP=7.31D-06 MaxDP=2.07D-03 DE=-1.20D-05 OVMax= 2.45D-04

 Cycle  10  Pass 1  IDiag  1:
 RMSU=  5.20D-06    CP:  7.73D-01  6.78D-01  6.91D-01  2.71D-01  8.12D-01
                    CP:  5.27D-01  7.89D-01  7.55D-01  7.19D-01
 E= -3820.29886203938     Delta-E=       -0.000000962424 Rises=F Damp=F
 DIIS: error= 3.74D-06 at cycle  10 NSaved=  10.
 NSaved=10 IEnMin=10 EnMin= -3820.29886203938     IErMin=10 ErrMin= 3.74D-06
 ErrMax= 3.74D-06  0.00D+00 EMaxC= 1.00D-01 BMatC= 8.11D-08 BMatP= 1.01D-06
 IDIUse=1 WtCom= 1.00D+00 WtEn= 0.00D+00
 Coeff-Com:  0.117D-04-0.809D-04-0.676D-03 0.206D-03-0.264D-02-0.460D-03
 Coeff-Com:  0.312D-01 0.839D-01 0.242D+00 0.647D+00
 Coeff:      0.117D-04-0.809D-04-0.676D-03 0.206D-03-0.264D-02-0.460D-03
 Coeff:      0.312D-01 0.839D-01 0.242D+00 0.647D+00
 Gap=     0.127 Goal=   None    Shift=    0.000
 RMSDP=2.65D-06 MaxDP=3.57D-04 DE=-9.62D-07 OVMax= 6.52D-05

 Cycle  11  Pass 1  IDiag  1:
 RMSU=  1.94D-06    CP:  7.73D-01  6.78D-01  6.92D-01  2.71D-01  8.12D-01
                    CP:  5.27D-01  7.94D-01  7.54D-01  7.45D-01  7.60D-01
 E= -3820.29886211613     Delta-E=       -0.000000076750 Rises=F Damp=F
 DIIS: error= 1.13D-06 at cycle  11 NSaved=  11.
 NSaved=11 IEnMin=11 EnMin= -3820.29886211613     IErMin=11 ErrMin= 1.13D-06
 ErrMax= 1.13D-06  0.00D+00 EMaxC= 1.00D-01 BMatC= 1.12D-08 BMatP= 8.11D-08
 IDIUse=1 WtCom= 1.00D+00 WtEn= 0.00D+00
 Coeff-Com: -0.655D-05-0.692D-06-0.513D-03 0.169D-03-0.137D-02-0.359D-03
 Coeff-Com:  0.604D-03 0.908D-02 0.718D-01 0.323D+00 0.598D+00
 Coeff:     -0.655D-05-0.692D-06-0.513D-03 0.169D-03-0.137D-02-0.359D-03
 Coeff:      0.604D-03 0.908D-02 0.718D-01 0.323D+00 0.598D+00
 Gap=     0.127 Goal=   None    Shift=    0.000
 RMSDP=9.32D-07 MaxDP=9.97D-05 DE=-7.68D-08 OVMax= 3.34D-05

 Cycle  12  Pass 1  IDiag  1:
 RMSU=  5.71D-07    CP:  7.73D-01  6.78D-01  6.92D-01  2.71D-01  8.12D-01
                    CP:  5.28D-01  7.92D-01  7.59D-01  7.65D-01  8.20D-01
                    CP:  8.93D-01
 E= -3820.29886212902     Delta-E=       -0.000000012893 Rises=F Damp=F
 DIIS: error= 6.35D-07 at cycle  12 NSaved=  12.
 NSaved=12 IEnMin=12 EnMin= -3820.29886212902     IErMin=12 ErrMin= 6.35D-07
 ErrMax= 6.35D-07  0.00D+00 EMaxC= 1.00D-01 BMatC= 1.52D-09 BMatP= 1.12D-08
 IDIUse=1 WtCom= 1.00D+00 WtEn= 0.00D+00
 Coeff-Com: -0.621D-05 0.126D-04-0.220D-03 0.688D-04-0.452D-03-0.371D-04
 Coeff-Com: -0.310D-02-0.479D-02 0.901D-02 0.912D-01 0.314D+00 0.594D+00
 Coeff:     -0.621D-05 0.126D-04-0.220D-03 0.688D-04-0.452D-03-0.371D-04
 Coeff:     -0.310D-02-0.479D-02 0.901D-02 0.912D-01 0.314D+00 0.594D+00
 Gap=     0.127 Goal=   None    Shift=    0.000
 RMSDP=2.88D-07 MaxDP=3.83D-05 DE=-1.29D-08 OVMax= 1.15D-05

 Cycle  13  Pass 1  IDiag  1:
 RMSU=  2.34D-07    CP:  7.73D-01  6.78D-01  6.92D-01  2.71D-01  8.12D-01
                    CP:  5.28D-01  7.93D-01  7.60D-01  7.70D-01  8.34D-01
                    CP:  9.27D-01  9.19D-01
 E= -3820.29886212850     Delta-E=        0.000000000524 Rises=F Damp=F
 DIIS: error= 1.47D-07 at cycle  13 NSaved=  13.
 NSaved=13 IEnMin=12 EnMin= -3820.29886212902     IErMin=13 ErrMin= 1.47D-07
 ErrMax= 1.47D-07  0.00D+00 EMaxC= 1.00D-01 BMatC= 1.85D-10 BMatP= 1.52D-09
 IDIUse=1 WtCom= 1.00D+00 WtEn= 0.00D+00
 Coeff-Com: -0.247D-05 0.613D-05-0.463D-04 0.145D-04-0.595D-04 0.410D-04
 Coeff-Com: -0.147D-02-0.340D-02-0.580D-02-0.344D-02 0.682D-01 0.309D+00
 Coeff-Com:  0.637D+00
 Coeff:     -0.247D-05 0.613D-05-0.463D-04 0.145D-04-0.595D-04 0.410D-04
 Coeff:     -0.147D-02-0.340D-02-0.580D-02-0.344D-02 0.682D-01 0.309D+00
 Coeff:      0.637D+00
 Gap=     0.127 Goal=   None    Shift=    0.000
 RMSDP=1.42D-07 MaxDP=1.95D-05 DE= 5.24D-10 OVMax= 7.52D-06

 Cycle  14  Pass 1  IDiag  1:
 RMSU=  9.30D-08    CP:  7.73D-01  6.78D-01  6.92D-01  2.71D-01  8.12D-01
                    CP:  5.28D-01  7.93D-01  7.60D-01  7.71D-01  8.39D-01
                    CP:  9.56D-01  9.82D-01  8.51D-01
 E= -3820.29886212845     Delta-E=        0.000000000051 Rises=F Damp=F
 DIIS: error= 7.35D-08 at cycle  14 NSaved=  14.
 NSaved=14 IEnMin=12 EnMin= -3820.29886212902     IErMin=14 ErrMin= 7.35D-08
 ErrMax= 7.35D-08  0.00D+00 EMaxC= 1.00D-01 BMatC= 3.69D-11 BMatP= 1.85D-10
 IDIUse=1 WtCom= 1.00D+00 WtEn= 0.00D+00
 Coeff-Com: -0.594D-06 0.203D-05 0.624D-05-0.249D-05 0.382D-04 0.369D-04
 Coeff-Com: -0.448D-03-0.145D-02-0.501D-02-0.164D-01-0.513D-02 0.100D+00
 Coeff-Com:  0.388D+00 0.540D+00
 Coeff:     -0.594D-06 0.203D-05 0.624D-05-0.249D-05 0.382D-04 0.369D-04
 Coeff:     -0.448D-03-0.145D-02-0.501D-02-0.164D-01-0.513D-02 0.100D+00
 Coeff:      0.388D+00 0.540D+00
 Gap=     0.127 Goal=   None    Shift=    0.000
 RMSDP=5.19D-08 MaxDP=7.30D-06 DE= 5.09D-11 OVMax= 1.45D-06

 Cycle  15  Pass 1  IDiag  1:
 RMSU=  3.38D-08    CP:  7.73D-01  6.78D-01  6.92D-01  2.71D-01  8.12D-01
                    CP:  5.28D-01  7.93D-01  7.60D-01  7.72D-01  8.39D-01
                    CP:  9.66D-01  1.00D+00  9.19D-01  7.79D-01
 E= -3820.29886212916     Delta-E=       -0.000000000713 Rises=F Damp=F
 DIIS: error= 2.71D-08 at cycle  15 NSaved=  15.
 NSaved=15 IEnMin=15 EnMin= -3820.29886212916     IErMin=15 ErrMin= 2.71D-08
 ErrMax= 2.71D-08  0.00D+00 EMaxC= 1.00D-01 BMatC= 3.61D-12 BMatP= 3.69D-11
 IDIUse=1 WtCom= 1.00D+00 WtEn= 0.00D+00
 Coeff-Com: -0.426D-07 0.369D-06 0.740D-05-0.213D-05 0.212D-04 0.712D-05
 Coeff-Com: -0.762D-04-0.371D-03-0.186D-02-0.812D-02-0.927D-02 0.195D-01
 Coeff-Com:  0.138D+00 0.287D+00 0.575D+00
 Coeff:     -0.426D-07 0.369D-06 0.740D-05-0.213D-05 0.212D-04 0.712D-05
 Coeff:     -0.762D-04-0.371D-03-0.186D-02-0.812D-02-0.927D-02 0.195D-01
 Coeff:      0.138D+00 0.287D+00 0.575D+00
 Gap=     0.127 Goal=   None    Shift=    0.000
 RMSDP=1.99D-08 MaxDP=3.10D-06 DE=-7.13D-10 OVMax= 9.07D-07

 Cycle  16  Pass 1  IDiag  1:
 RMSU=  1.35D-08    CP:  7.73D-01  6.78D-01  6.92D-01  2.71D-01  8.12D-01
                    CP:  5.28D-01  7.93D-01  7.60D-01  7.72D-01  8.39D-01
                    CP:  9.68D-01  1.02D+00  9.31D-01  8.04D-01  7.53D-01
 E= -3820.29886213009     Delta-E=       -0.000000000928 Rises=F Damp=F
 DIIS: error= 1.09D-08 at cycle  16 NSaved=  16.
 NSaved=16 IEnMin=16 EnMin= -3820.29886213009     IErMin=16 ErrMin= 1.09D-08
 ErrMax= 1.09D-08  0.00D+00 EMaxC= 1.00D-01 BMatC= 7.18D-13 BMatP= 3.61D-12
 IDIUse=1 WtCom= 1.00D+00 WtEn= 0.00D+00
 Coeff-Com:  0.805D-07-0.572D-07 0.423D-05-0.126D-05 0.904D-05-0.139D-05
 Coeff-Com:  0.169D-04-0.203D-04-0.393D-03-0.257D-02-0.469D-02-0.338D-02
 Coeff-Com:  0.250D-01 0.861D-01 0.339D+00 0.561D+00
 Coeff:      0.805D-07-0.572D-07 0.423D-05-0.126D-05 0.904D-05-0.139D-05
 Coeff:      0.169D-04-0.203D-04-0.393D-03-0.257D-02-0.469D-02-0.338D-02
 Coeff:      0.250D-01 0.861D-01 0.339D+00 0.561D+00
 Gap=     0.127 Goal=   None    Shift=    0.000
 RMSDP=8.36D-09 MaxDP=2.47D-06 DE=-9.28D-10 OVMax= 2.16D-07

 Cycle  17  Pass 1  IDiag  1:
 RMSU=  4.63D-09    CP:  7.73D-01  6.78D-01  6.92D-01  2.71D-01  8.12D-01
                    CP:  5.28D-01  7.93D-01  7.60D-01  7.72D-01  8.39D-01
                    CP:  9.68D-01  1.02D+00  9.40D-01  8.16D-01  8.31D-01
                    CP:  7.76D-01
 E= -3820.29886212643     Delta-E=        0.000000003663 Rises=F Damp=F
 DIIS: error= 4.66D-09 at cycle  17 NSaved=  17.
 NSaved=17 IEnMin=16 EnMin= -3820.29886213009     IErMin=17 ErrMin= 4.66D-09
 ErrMax= 4.66D-09  0.00D+00 EMaxC= 1.00D-01 BMatC= 8.91D-14 BMatP= 7.18D-13
 IDIUse=1 WtCom= 1.00D+00 WtEn= 0.00D+00
 Coeff-Com:  0.571D-07-0.115D-06 0.955D-06-0.241D-06 0.735D-06-0.286D-05
 Coeff-Com:  0.223D-04 0.591D-04 0.149D-03 0.132D-03-0.552D-03-0.504D-02
 Coeff-Com: -0.108D-01-0.704D-02 0.831D-01 0.297D+00 0.643D+00
 Coeff:      0.571D-07-0.115D-06 0.955D-06-0.241D-06 0.735D-06-0.286D-05
 Coeff:      0.223D-04 0.591D-04 0.149D-03 0.132D-03-0.552D-03-0.504D-02
 Coeff:     -0.108D-01-0.704D-02 0.831D-01 0.297D+00 0.643D+00
 Gap=     0.127 Goal=   None    Shift=    0.000
 RMSDP=3.08D-09 MaxDP=6.52D-07 DE= 3.66D-09 OVMax= 1.70D-07

 Cycle  18  Pass 1  IDiag  1:
 RMSU=  1.92D-09    CP:  7.73D-01  6.78D-01  6.92D-01  2.71D-01  8.12D-01
                    CP:  5.28D-01  7.93D-01  7.60D-01  7.72D-01  8.39D-01
                    CP:  9.68D-01  1.02D+00  9.41D-01  8.28D-01  8.51D-01
                    CP:  8.59D-01  8.32D-01
 E= -3820.29886212769     Delta-E=       -0.000000001266 Rises=F Damp=F
 DIIS: error= 1.48D-09 at cycle  18 NSaved=  18.
 NSaved=18 IEnMin=16 EnMin= -3820.29886213009     IErMin=18 ErrMin= 1.48D-09
 ErrMax= 1.48D-09  0.00D+00 EMaxC= 1.00D-01 BMatC= 1.52D-14 BMatP= 8.91D-14
 IDIUse=1 WtCom= 1.00D+00 WtEn= 0.00D+00
 Coeff-Com:  0.229D-07-0.527D-07 0.155D-06-0.464D-07-0.262D-06-0.141D-05
 Coeff-Com:  0.910D-05 0.314D-04 0.116D-03 0.323D-03 0.195D-03-0.253D-02
 Coeff-Com: -0.889D-02-0.147D-01 0.905D-02 0.998D-01 0.382D+00 0.535D+00
 Coeff:      0.229D-07-0.527D-07 0.155D-06-0.464D-07-0.262D-06-0.141D-05
 Coeff:      0.910D-05 0.314D-04 0.116D-03 0.323D-03 0.195D-03-0.253D-02
 Coeff:     -0.889D-02-0.147D-01 0.905D-02 0.998D-01 0.382D+00 0.535D+00
 Gap=     0.127 Goal=   None    Shift=    0.000
 RMSDP=1.22D-09 MaxDP=2.05D-07 DE=-1.27D-09 OVMax= 3.28D-08

 Error on total polarization charges =  0.02385
 SCF Done:  E(RPBE1PBE) =  -3820.29886213     A.U. after   18 cycles
            NFock= 18  Conv=0.12D-08     -V/T= 2.0040
 KE= 3.805122165578D+03 PE=-4.182127665265D+04 EE= 1.774057577957D+04
 Leave Link  502 at Sat Apr  2 18:40:10 2022, MaxMem=  4294967296 cpu:          443580.3 elap:            6988.7
 (Enter /share/apps/g16/l508.exe)
 QCSCF skips out because SCF is already converged.
 Leave Link  508 at Sat Apr  2 18:40:10 2022, MaxMem=  4294967296 cpu:               1.7 elap:               0.1
 (Enter /share/apps/g16/l601.exe)
 Copying SCF densities to generalized density rwf, IOpCl= 0 IROHF=0.
 Hyperfine terms turned off by default for NAtoms > 100.

 **********************************************************************

            Population analysis using the SCF Density.

 **********************************************************************

 Orbital symmetries:
       Occupied  (A) (A) (A) (A) (A) (A) (A) (A) (A) (A) (A) (A)
                 (A) (A) (A) (A) (A) (A) (A) (A) (A) (A) (A) (A)
                 (A) (A) (A) (A) (A) (A) (A) (A) (A) (A) (A) (A)
                 (A) (A) (A) (A) (A) (A) (A) (A) (A) (A) (A) (A)
                 (A) (A) (A) (A) (A) (A) (A) (A) (A) (A) (A) (A)
                 (A) (A) (A) (A) (A) (A) (A) (A) (A) (A) (A) (A)
                 (A) (A) (A) (A) (A) (A) (A) (A) (A) (A) (A) (A)
                 (A) (A) (A) (A) (A) (A) (A) (A) (A) (A) (A) (A)
                 (A) (A) (A) (A) (A) (A) (A) (A) (A) (A) (A) (A)
                 (A) (A) (A) (A) (A) (A) (A) (A) (A) (A) (A) (A)
                 (A) (A) (A) (A) (A) (A) (A) (A) (A) (A) (A) (A)
                 (A) (A) (A) (A) (A) (A) (A) (A) (A) (A) (A) (A)
                 (A) (A) (A) (A) (A) (A) (A) (A) (A) (A) (A) (A)
                 (A) (A) (A) (A) (A) (A) (A) (A) (A) (A) (A) (A)
                 (A) (A) (A) (A) (A) (A) (A) (A) (A) (A) (A) (A)
                 (A) (A) (A) (A) (A) (A) (A) (A) (A) (A) (A) (A)
                 (A) (A) (A) (A) (A) (A) (A) (A) (A) (A) (A) (A)
                 (A) (A) (A) (A) (A) (A) (A) (A) (A) (A) (A) (A)
                 (A) (A) (A) (A) (A) (A) (A) (A) (A) (A) (A) (A)
                 (A) (A) (A) (A) (A) (A) (A) (A) (A) (A) (A) (A)
                 (A) (A) (A) (A) (A) (A) (A) (A) (A) (A) (A) (A)
                 (A) (A) (A) (A) (A) (A) (A) (A) (A) (A) (A) (A)
                 (A) (A) (A) (A) (A) (A) (A) (A) (A) (A) (A) (A)
                 (A) (A) (A) (A) (A) (A) (A) (A) (A) (A) (A) (A)
                 (A) (A) (A) (A) (A) (A) (A) (A) (A) (A) (A) (A)
                 (A) (A)
       Virtual   (A) (A) (A) (A) (A) (A) (A) (A) (A) (A) (A) (A)
                 (A) (A) (A) (A) (A) (A) (A) (A) (A) (A) (A) (A)
                 (A) (A) (A) (A) (A) (A) (A) (A) (A) (A) (A) (A)
                 (A) (A) (A) (A) (A) (A) (A) (A) (A) (A) (A) (A)
                 (A) (A) (A) (A) (A) (A) (A) (A) (A) (A) (A) (A)
                 (A) (A) (A) (A) (A) (A) (A) (A) (A) (A) (A) (A)
                 (A) (A) (A) (A) (A) (A) (A) (A) (A) (A) (A) (A)
                 (A) (A) (A) (A) (A) (A) (A) (A) (A) (A) (A) (A)
                 (A) (A) (A) (A) (A) (A) (A) (A) (A) (A) (A) (A)
                 (A) (A) (A) (A) (A) (A) (A) (A) (A) (A) (A) (A)
                 (A) (A) (A) (A) (A) (A) (A) (A) (A) (A) (A) (A)
                 (A) (A) (A) (A) (A) (A) (A) (A) (A) (A) (A) (A)
                 (A) (A) (A) (A) (A) (A) (A) (A) (A) (A) (A) (A)
                 (A) (A) (A) (A) (A) (A) (A) (A) (A) (A) (A) (A)
                 (A) (A) (A) (A) (A) (A) (A) (A) (A) (A) (A) (A)
                 (A) (A) (A) (A) (A) (A) (A) (A) (A) (A) (A) (A)
                 (A) (A) (A) (A) (A) (A) (A) (A) (A) (A) (A) (A)
                 (A) (A) (A) (A) (A) (A) (A) (A) (A) (A) (A) (A)
                 (A) (A) (A) (A) (A) (A) (A) (A) (A) (A) (A) (A)
                 (A) (A) (A) (A) (A) (A) (A) (A) (A) (A) (A) (A)
                 (A) (A) (A) (A) (A) (A) (A) (A) (A) (A) (A) (A)
                 (A) (A) (A) (A) (A) (A) (A) (A) (A) (A) (A) (A)
                 (A) (A) (A) (A) (A) (A) (A) (A) (A) (A) (A) (A)
                 (A) (A) (A) (A) (A) (A) (A) (A) (A) (A) (A) (A)
                 (A) (A) (A) (A) (A) (A) (A) (A) (A) (A) (A) (A)
                 (A) (A) (A) (A) (A) (A) (A) (A) (A) (A) (A) (A)
                 (A) (A) (A) (A) (A) (A) (A) (A) (A) (A) (A) (A)
                 (A) (A) (A) (A) (A) (A) (A) (A) (A) (A) (A) (A)
                 (A) (A) (A) (A) (A) (A) (A) (A) (A) (A) (A) (A)
                 (A) (A) (A) (A) (A) (A) (A) (A) (A) (A) (A) (A)
                 (A) (A) (A) (A) (A) (A) (A) (A) (A) (A) (A) (A)
                 (A) (A) (A) (A) (A) (A) (A) (A) (A) (A) (A) (A)
                 (A) (A) (A) (A) (A) (A) (A) (A) (A) (A) (A) (A)
                 (A) (A) (A) (A) (A) (A) (A) (A) (A) (A) (A) (A)
                 (A) (A) (A) (A) (A) (A) (A) (A) (A) (A) (A) (A)
                 (A) (A) (A) (A) (A) (A) (A) (A) (A) (A) (A) (A)
                 (A) (A) (A) (A) (A) (A) (A) (A) (A) (A) (A) (A)
                 (A) (A) (A) (A) (A) (A) (A) (A) (A) (A) (A) (A)
                 (A) (A) (A) (A) (A) (A) (A) (A) (A) (A) (A) (A)
                 (A) (A) (A) (A) (A) (A) (A) (A) (A) (A) (A) (A)
                 (A) (A) (A) (A) (A) (A) (A) (A) (A) (A) (A) (A)
                 (A) (A) (A) (A) (A) (A) (A) (A) (A) (A) (A) (A)
                 (A) (A) (A) (A) (A) (A) (A) (A) (A) (A) (A) (A)
                 (A) (A) (A) (A) (A) (A) (A) (A) (A) (A) (A) (A)
                 (A) (A) (A) (A) (A) (A) (A) (A) (A) (A) (A) (A)
                 (A) (A) (A) (A) (A) (A) (A) (A) (A) (A) (A) (A)
                 (A) (A) (A) (A) (A) (A) (A) (A) (A) (A) (A) (A)
                 (A) (A) (A) (A) (A) (A) (A) (A) (A) (A) (A) (A)
                 (A) (A) (A) (A) (A) (A) (A) (A) (A) (A) (A) (A)
                 (A) (A) (A) (A) (A) (A) (A) (A) (A) (A) (A) (A)
                 (A) (A) (A) (A) (A) (A) (A) (A) (A) (A) (A) (A)
                 (A) (A) (A) (A) (A) (A) (A) (A) (A) (A) (A) (A)
                 (A) (A) (A) (A) (A) (A) (A) (A) (A) (A) (A) (A)
                 (A) (A) (A) (A) (A) (A) (A) (A) (A) (A) (A) (A)
                 (A) (A) (A) (A) (A) (A) (A) (A) (A) (A) (A) (A)
                 (A) (A) (A) (A) (A) (A) (A) (A) (A) (A) (A) (A)
                 (A) (A) (A) (A) (A) (A) (A) (A) (A) (A) (A) (A)
                 (A) (A) (A) (A) (A) (A) (A) (A) (A) (A) (A) (A)
                 (A) (A) (A) (A) (A) (A) (A) (A) (A) (A) (A) (A)
                 (A) (A) (A) (A) (A) (A) (A) (A) (A) (A) (A) (A)
                 (A) (A) (A) (A) (A) (A) (A) (A) (A) (A) (A) (A)
                 (A) (A) (A) (A) (A) (A) (A) (A) (A) (A) (A) (A)
                 (A) (A) (A) (A) (A) (A) (A) (A) (A) (A) (A) (A)
                 (A) (A) (A) (A) (A) (A) (A) (A) (A) (A) (A) (A)
                 (A) (A) (A) (A) (A) (A) (A) (A) (A) (A) (A) (A)
                 (A) (A) (A) (A) (A) (A) (A) (A) (A) (A) (A) (A)
                 (A) (A) (A) (A) (A) (A) (A) (A) (A) (A) (A) (A)
                 (A) (A) (A) (A) (A) (A) (A) (A) (A) (A) (A) (A)
                 (A) (A) (A) (A) (A) (A) (A) (A) (A) (A) (A) (A)
                 (A) (A) (A) (A) (A) (A) (A) (A) (A) (A) (A) (A)
                 (A) (A) (A) (A) (A) (A) (A) (A) (A) (A) (A) (A)
                 (A) (A) (A) (A) (A) (A) (A) (A) (A) (A) (A) (A)
                 (A) (A) (A) (A) (A) (A) (A) (A) (A) (A) (A) (A)
                 (A) (A) (A) (A) (A) (A) (A) (A) (A) (A) (A) (A)
                 (A) (A) (A) (A) (A) (A) (A) (A) (A) (A) (A) (A)
                 (A) (A) (A) (A) (A) (A) (A) (A) (A) (A) (A) (A)
                 (A) (A) (A) (A) (A) (A) (A) (A) (A) (A) (A) (A)
                 (A) (A) (A) (A) (A) (A) (A) (A) (A) (A) (A) (A)
                 (A) (A) (A) (A) (A) (A) (A) (A) (A) (A) (A) (A)
                 (A) (A) (A) (A) (A) (A) (A) (A) (A) (A) (A) (A)
                 (A) (A) (A) (A) (A) (A) (A) (A) (A) (A) (A) (A)
                 (A) (A) (A) (A) (A) (A) (A) (A) (A) (A) (A) (A)
                 (A) (A) (A) (A) (A) (A) (A) (A) (A) (A) (A) (A)
                 (A) (A) (A) (A) (A) (A) (A) (A) (A) (A) (A) (A)
                 (A) (A) (A) (A) (A) (A) (A) (A) (A) (A) (A) (A)
                 (A) (A) (A) (A) (A) (A) (A) (A) (A) (A) (A) (A)
                 (A) (A) (A) (A) (A) (A) (A) (A) (A) (A) (A) (A)
                 (A) (A) (A) (A) (A) (A) (A) (A) (A) (A) (A) (A)
                 (A) (A) (A) (A) (A) (A) (A) (A) (A) (A) (A) (A)
                 (A) (A) (A) (A) (A) (A) (A) (A) (A) (A) (A) (A)
                 (A) (A) (A) (A) (A) (A) (A) (A) (A) (A) (A) (A)
                 (A) (A) (A) (A) (A) (A) (A) (A) (A) (A) (A) (A)
                 (A) (A) (A) (A) (A) (A) (A) (A) (A) (A) (A) (A)
                 (A) (A) (A) (A) (A) (A) (A) (A) (A) (A) (A) (A)
                 (A) (A) (A) (A) (A) (A) (A) (A) (A) (A) (A) (A)
                 (A) (A) (A) (A) (A) (A) (A) (A) (A) (A) (A) (A)
                 (A) (A) (A) (A) (A) (A) (A) (A) (A) (A) (A) (A)
                 (A) (A) (A) (A) (A) (A) (A) (A) (A) (A) (A) (A)
                 (A) (A) (A) (A) (A) (A) (A) (A) (A) (A) (A) (A)
                 (A) (A) (A) (A) (A) (A) (A) (A) (A) (A) (A) (A)
                 (A) (A) (A) (A) (A) (A) (A) (A) (A) (A) (A) (A)
                 (A) (A) (A) (A) (A) (A) (A) (A) (A) (A) (A) (A)
                 (A) (A) (A) (A) (A) (A) (A) (A) (A) (A) (A) (A)
                 (A) (A) (A) (A) (A) (A) (A) (A) (A) (A) (A) (A)
                 (A) (A) (A) (A) (A) (A) (A) (A) (A) (A) (A) (A)
                 (A) (A) (A) (A) (A) (A) (A) (A) (A) (A) (A) (A)
                 (A) (A) (A) (A) (A) (A) (A) (A) (A) (A) (A) (A)
                 (A) (A) (A) (A) (A) (A) (A) (A) (A) (A) (A) (A)
                 (A) (A) (A) (A) (A) (A) (A) (A) (A) (A) (A) (A)
                 (A) (A) (A) (A) (A) (A) (A) (A) (A) (A) (A) (A)
                 (A) (A) (A) (A) (A) (A) (A) (A) (A) (A) (A) (A)
                 (A) (A) (A) (A) (A) (A) (A) (A) (A) (A) (A) (A)
                 (A) (A) (A) (A) (A) (A) (A) (A) (A) (A) (A) (A)
                 (A) (A) (A) (A) (A) (A) (A) (A) (A) (A) (A) (A)
                 (A) (A) (A) (A) (A) (A) (A) (A) (A) (A) (A) (A)
                 (A) (A) (A) (A) (A) (A) (A) (A) (A) (A) (A) (A)
                 (A) (A) (A) (A) (A) (A) (A) (A) (A) (A) (A) (A)
                 (A) (A) (A) (A) (A) (A) (A) (A) (A) (A) (A) (A)
                 (A) (A) (A) (A) (A) (A) (A) (A) (A) (A) (A) (A)
                 (A) (A) (A) (A) (A) (A) (A) (A) (A) (A) (A) (A)
                 (A) (A) (A) (A) (A) (A) (A) (A) (A) (A) (A) (A)
                 (A) (A) (A) (A) (A) (A) (A) (A) (A) (A) (A) (A)
                 (A) (A) (A) (A) (A) (A) (A) (A) (A) (A) (A) (A)
                 (A) (A) (A) (A) (A) (A) (A) (A) (A) (A) (A) (A)
                 (A) (A) (A) (A) (A) (A) (A) (A) (A) (A) (A) (A)
                 (A) (A) (A) (A) (A) (A) (A) (A) (A) (A) (A) (A)
                 (A) (A) (A) (A) (A) (A) (A) (A) (A) (A) (A) (A)
                 (A) (A) (A) (A) (A) (A) (A) (A) (A) (A) (A) (A)
                 (A) (A) (A) (A) (A) (A) (A) (A) (A) (A) (A) (A)
                 (A) (A) (A) (A) (A) (A) (A) (A) (A) (A) (A) (A)
                 (A) (A) (A) (A) (A) (A) (A) (A) (A) (A) (A) (A)
                 (A) (A) (A) (A) (A) (A) (A) (A) (A) (A) (A) (A)
                 (A) (A) (A) (A) (A) (A) (A) (A) (A) (A) (A) (A)
                 (A) (A) (A) (A) (A) (A) (A) (A) (A) (A) (A) (A)
                 (A) (A) (A) (A) (A) (A) (A) (A) (A) (A) (A) (A)
                 (A) (A) (A) (A) (A) (A) (A) (A) (A) (A) (A) (A)
                 (A) (A) (A) (A) (A) (A) (A) (A) (A) (A) (A) (A)
                 (A) (A) (A) (A) (A) (A) (A) (A) (A) (A) (A) (A)
                 (A) (A) (A) (A) (A) (A) (A) (A) (A) (A) (A) (A)
                 (A) (A) (A) (A) (A) (A) (A) (A) (A) (A) (A) (A)
                 (A) (A) (A) (A) (A) (A) (A) (A) (A) (A) (A) (A)
                 (A) (A) (A) (A) (A) (A) (A) (A) (A) (A) (A) (A)
                 (A) (A) (A) (A) (A) (A) (A) (A) (A) (A) (A) (A)
[...]
 Alpha virt. eigenvalues --    3.03794   3.04041   3.04207   3.04331   3.04740
 Alpha virt. eigenvalues --    3.04965   3.05064   3.05415   3.05679   3.05845
 Alpha virt. eigenvalues --    3.06230   3.06494   3.06798   3.07421   3.07539
 Alpha virt. eigenvalues --    3.07641   3.08286   3.08383   3.08506   3.08704
 Alpha virt. eigenvalues --    3.09214   3.09332   3.09638   3.09971   3.10390
 Alpha virt. eigenvalues --    3.10452   3.10492   3.11059   3.11405   3.11443
 Alpha virt. eigenvalues --    3.11732   3.11956   3.12050   3.12451   3.13025
 Alpha virt. eigenvalues --    3.13227   3.13696   3.13862   3.13954   3.14396
 Alpha virt. eigenvalues --    3.14854   3.15118   3.15377   3.15521   3.16194
 Alpha virt. eigenvalues --    3.16497   3.16876   3.17084   3.17166   3.17719
 Alpha virt. eigenvalues --    3.18564   3.18606   3.18837   3.19115   3.19555
 Alpha virt. eigenvalues --    3.19807   3.20483   3.21026   3.21588   3.21727
 Alpha virt. eigenvalues --    3.22306   3.22603   3.23070   3.23400   3.23762
 Alpha virt. eigenvalues --    3.24247   3.24553   3.24684   3.25326   3.26068
 Alpha virt. eigenvalues --    3.26225   3.26555   3.26817   3.27407   3.27564
 Alpha virt. eigenvalues --    3.28157   3.28908   3.29406   3.29707   3.30374
 Alpha virt. eigenvalues --    3.30625   3.31000   3.31323   3.31787   3.32039
 Alpha virt. eigenvalues --    3.32989   3.33135   3.33457   3.33800   3.34474
 Alpha virt. eigenvalues --    3.34564   3.35174   3.35627   3.36261   3.36699
 Alpha virt. eigenvalues --    3.37289   3.38253   3.38801   3.39530   3.39958
 Alpha virt. eigenvalues --    3.40050   3.40772   3.41280   3.41832   3.42139
 Alpha virt. eigenvalues --    3.42852   3.43179   3.43912   3.44399   3.44789
 Alpha virt. eigenvalues --    3.45142   3.45211   3.45857   3.46826   3.46956
 Alpha virt. eigenvalues --    3.47398   3.47655   3.48332   3.48762   3.49621
 Alpha virt. eigenvalues --    3.50386   3.50854   3.50983   3.52291   3.53011
 Alpha virt. eigenvalues --    3.54321   3.54903   3.55364   3.55921   3.56734
 Alpha virt. eigenvalues --    3.57224   3.57285   3.58112   3.58643   3.60824
 Alpha virt. eigenvalues --    3.61151   3.61890   3.62870   3.63214   3.63532
 Alpha virt. eigenvalues --    3.64236   3.64625   3.65085   3.65325   3.65599
 Alpha virt. eigenvalues --    3.66108   3.66397   3.66932   3.67173   3.68689
 Alpha virt. eigenvalues --    3.68960   3.69325   3.70819   3.72517   3.73049
 Alpha virt. eigenvalues --    3.74084   3.75021   3.75492   3.76424   3.76725
 Alpha virt. eigenvalues --    3.79114   3.80187   3.80423   3.81012   3.81418
 Alpha virt. eigenvalues --    3.81517   3.83007   3.83303   3.83311   3.83437
 Alpha virt. eigenvalues --    3.83843   3.83978   3.84220   3.84774   3.85026
 Alpha virt. eigenvalues --    3.85110   3.85548   3.85767   3.85969   3.86074
 Alpha virt. eigenvalues --    3.86358   3.86409   3.86632   3.86883   3.87509
 Alpha virt. eigenvalues --    3.87791   3.88044   3.88263   3.88575   3.88937
 Alpha virt. eigenvalues --    3.89543   3.89927   3.90098   3.90639   3.91119
 Alpha virt. eigenvalues --    3.91858   3.92320   3.92610   3.92722   3.93251
 Alpha virt. eigenvalues --    3.93960   3.94237   3.95175   3.95862   3.98218
 Alpha virt. eigenvalues --    4.00425   4.01358   4.02623   4.04403   4.06220
 Alpha virt. eigenvalues --    4.06302   4.06759   4.07114   4.07908   4.08887
 Alpha virt. eigenvalues --    4.09107   4.09214   4.10130   4.11628   4.12400
 Alpha virt. eigenvalues --    4.12704   4.13053   4.15051   4.17277   4.17696
 Alpha virt. eigenvalues --    4.18195   4.19532   4.20357   4.21360   4.22093
 Alpha virt. eigenvalues --    4.22325   4.22940   4.23788   4.23960   4.24416
 Alpha virt. eigenvalues --    4.24723   4.24926   4.25661   4.25983   4.27045
 Alpha virt. eigenvalues --    4.27479   4.28260   4.28762   4.28984   4.29304
 Alpha virt. eigenvalues --    4.29750   4.30241   4.31606   4.31927   4.32270
 Alpha virt. eigenvalues --    4.35743   4.36251   4.36483   4.37871   4.39456
 Alpha virt. eigenvalues --    4.40466   4.41283   4.41520   4.41567   4.42473
 Alpha virt. eigenvalues --    4.44471   4.45534   4.53717   4.61684   4.80503
 Alpha virt. eigenvalues --    4.85911   4.87076   4.89033   4.89182   4.89402
 Alpha virt. eigenvalues --    4.89914   4.92202   4.92402   4.93051   4.99320
 Alpha virt. eigenvalues --    5.02562   5.04172   5.11919   5.16873   5.22053
 Alpha virt. eigenvalues --    5.24343   5.27866   5.31894   5.33345   5.37267
 Alpha virt. eigenvalues --    5.38633   5.44551   5.46359   5.47484   5.52917
 Alpha virt. eigenvalues --    5.56376   5.63763   5.73397   5.82974   5.86147
 Alpha virt. eigenvalues --    5.93594   5.94520   6.01773   6.05721   8.11402
 Alpha virt. eigenvalues --   17.53149  17.63188  17.64179  23.80067  23.80542
 Alpha virt. eigenvalues --   23.82230  23.83939  23.84660  23.87551  23.96076
 Alpha virt. eigenvalues --   23.97509  23.98018  23.99188  23.99322  23.99876
 Alpha virt. eigenvalues --   24.01217  24.01406  24.01837  24.02314  24.03317
 Alpha virt. eigenvalues --   24.03484  24.03696  24.05058  24.05742  24.06747
 Alpha virt. eigenvalues --   24.09413  24.09943  24.10063  24.10182  24.10926
 Alpha virt. eigenvalues --   24.11111  24.11545  24.11744  24.11831  24.11932
 Alpha virt. eigenvalues --   24.12371  24.12591  24.12880  24.12927  24.13153
 Alpha virt. eigenvalues --   24.14295  24.14508  24.14957  24.15480  24.15991
 Alpha virt. eigenvalues --   24.16400  24.16596  24.17177  24.17515  24.17671
 Alpha virt. eigenvalues --   24.18520  24.19002  24.19599  24.19869  24.20823
 Alpha virt. eigenvalues --   24.21045  24.21555  24.21964  24.22196  24.22345
 Alpha virt. eigenvalues --   24.22677  24.23450  24.23723  24.24968  24.27349
 Alpha virt. eigenvalues --   24.29180  24.29585  24.29902  24.30252  24.30856
 Alpha virt. eigenvalues --   24.32679  35.73632  35.78338  35.81040  35.81813
 Alpha virt. eigenvalues --   35.82925  35.90521  50.10559  50.13206  50.19121
 Alpha virt. eigenvalues --   50.21841  50.22537  50.25809 189.50068
          Condensed to atoms (all electrons):
 Mulliken charges:
               1
     1  C   -0.588648
     2  C   -1.059033
     3  H   -0.100293
     4  C   -0.347497
     5  H    0.183901
     6  H    0.176735
     7  N    0.556290
     8  H   -0.035927
     9  C   -0.115098
    10  C    0.148045
    11  C    0.187179
    12  C    0.048385
    13  C   -0.293854
    14  H   -0.052835
    15  H    0.304097
    16  C   -0.391796
    17  H    0.252568
    18  C   -0.281187
    19  H    0.227151
    20  C   -0.667610
    21  H    0.264217
    22  H    0.273248
    23  C   -0.159293
    24  H   -0.007988
    25  H    0.301300
    26  H    0.444431
    27  C    1.352374
    28  C   -1.165797
    29  H    0.219830
    30  H    0.201320
    31  H    0.069033
    32  C   -0.089822
    33  H    0.198761
    34  H    0.148940
    35  C   -0.758198
    36  H    0.197681
    37  H    0.192573
    38  H    0.183061
    39  C   -0.702273
    40  C   -0.566037
    41  H    0.177395
    42  H    0.247982
    43  C   -0.550751
    44  H    0.271866
    45  H    0.217603
    46  C   -0.594114
    47  O    0.062147
    48  N   -0.004042
    49  H    0.370591
    50  H    0.622531
    51  C   -1.091656
    52  C   -0.322717
    53  H    0.229200
    54  H    0.227041
    55  C    0.165914
    56  C   -1.057910
    57  H    0.302497
    58  C    0.384058
    59  H    0.230480
    60  C    0.018343
    61  O    0.044013
    62  H    0.230999
    63  C   -0.390296
    64  H    0.304035
    65  C   -0.131471
    66  H    0.312895
    67  C   -0.992288
    68  C   -0.369193
    69  H    0.011265
    70  H    0.267680
    71  C    0.675318
    72  C   -0.481059
    73  H    0.226889
    74  C   -0.456452
    75  H    0.254951
    76  C   -0.239799
    77  H    0.250926
    78  C   -0.165328
    79  H    0.435203
    80  C    0.353085
    81  H   -0.184053
    82  C   -0.916237
    83  C   -0.251227
    84  H    0.011109
    85  H    0.324576
    86  S    0.316677
    87  C   -1.815243
    88  H    0.297109
    89  H    0.302876
    90  C    0.801325
    91  C   -0.571085
    92  C   -0.114061
    93  H    0.330841
    94  C   -0.125734
    95  C   -0.719893
    96  H    0.253624
    97  H    0.217577
    98  H    0.185271
    99  C    0.022999
   100  H    0.310167
   101  C   -0.210585
   102  N    1.080222
   103  C   -0.605235
   104  C    0.481387
   105  O   -0.081283
   106  N    0.017047
   107  H    0.456870
   108  C   -0.258509
   109  O   -0.274212
   110  N    0.053575
   111  C   -0.183942
   112  N    0.573191
   113  C   -0.291926
   114  C   -1.141309
   115  C    0.095755
   116  H    0.382477
   117  H    0.180714
   118  C    0.101295
   119  C    0.314301
   120  H    0.045700
   121  C   -0.362801
   122  H    0.465974
   123  C   -0.622362
   124  O   -0.034294
   125  H    0.329466
   126  C   -0.329807
   127  H    0.242573
   128  C   -0.416366
   129  H    0.231539
   130  C   -0.557667
   131  C   -0.556205
   132  H    0.186700
   133  H    0.256909
   134  C    0.471688
   135  C   -0.568635
   136  H    0.251321
   137  C   -0.279131
   138  H    0.200061
   139  C   -0.273819
   140  O    0.336015
   141  H   -0.476150
   142  C    0.052348
   143  H    0.181508
   144  C   -0.568026
   145  H    0.291865
   146  H    0.199393
   147  H    0.173442
   148  H    0.226106
   149  H    0.189893
   150  H    0.270629
   151  H    0.214931
   152  H    0.106384
   153  H    0.220074
   154  H    0.215822
   155  H    0.193968
   156  H    0.191591
   157  H    0.201837
   158  C   -0.787209
   159  H   -0.030596
   160  H    0.245984
   161  H    0.196036
   162  H   -0.316444
   163  H    0.186326
   164  H    0.010585
   165  H    0.225511
   166  H    0.207333
   167  H    0.191871
   168  H    0.152771
   169  H    0.244379
   170  H    0.225348
   171  H    0.183410
 Sum of Mulliken charges =  -0.00000
 Mulliken charges with hydrogens summed into heavy atoms:
               1
     1  C   -0.411913
     2  C   -1.159326
     4  C   -0.163596
     7  N    0.520363
     9  C    0.329334
    10  C    0.148045
    11  C    0.134343
    12  C    0.048385
    13  C    0.010243
    16  C   -0.139227
    18  C   -0.054035
    20  C   -0.130145
    23  C    0.134019
    27  C    1.321778
    28  C   -0.675614
    32  C    0.257879
    35  C   -0.184882
    39  C   -0.150298
    40  C   -0.140660
    43  C   -0.061281
    46  C   -0.594114
    47  O    0.062147
    48  N    0.989079
    51  C   -0.504260
    52  C    0.133525
    55  C    0.165914
    56  C   -0.755413
    58  C    0.614539
    60  C    0.018343
    61  O    0.275012
    63  C   -0.086260
    65  C    0.181424
    67  C   -0.450009
    68  C   -0.090249
    71  C    0.675318
    72  C   -0.254170
    74  C   -0.201501
    76  C    0.011127
    78  C    0.269876
    80  C    0.169031
    82  C   -0.317295
    83  C    0.084457
    86  S    0.316677
    87  C   -1.215258
    90  C    0.801325
    91  C   -0.240244
    92  C   -0.114061
    94  C   -0.125734
    95  C   -0.063421
    99  C    0.333165
   101  C   -0.210585
   102  N    1.080222
   103  C   -0.605235
   104  C    0.481387
   105  O   -0.081283
   106  N    0.473917
   108  C   -0.258509
   109  O   -0.274212
   110  N    0.053575
   111  C   -0.183942
   112  N    0.573191
   113  C    0.383526
   114  C   -0.488172
   115  C    0.658945
   118  C    0.101295
   119  C    0.360002
   121  C    0.103173
   123  C   -0.622362
   124  O    0.295172
   126  C   -0.087233
   128  C   -0.184827
   130  C   -0.135244
   131  C   -0.112596
   134  C    0.471688
   135  C   -0.317314
   137  C   -0.079070
   139  C   -0.273819
   140  O   -0.140135
   142  C    0.233856
   144  C   -0.276161
   158  C   -0.661633
 Electronic spatial extent (au):  <R**2>=          66312.8608
 Charge=              0.0000 electrons
 Dipole moment (field-independent basis, Debye):
    X=             -3.9197    Y=             18.5315    Z=             -5.5966  Tot=             19.7510
 Quadrupole moment (field-independent basis, Debye-Ang):
   XX=           -473.2343   YY=           -534.5015   ZZ=           -472.1614
   XY=             -9.2724   XZ=             -0.6968   YZ=             -0.7827
 Traceless Quadrupole moment (field-independent basis, Debye-Ang):
   XX=             20.0648   YY=            -41.2025   ZZ=             21.1377
   XY=             -9.2724   XZ=             -0.6968   YZ=             -0.7827
 Octapole moment (field-independent basis, Debye-Ang**2):
  XXX=           -221.7014  YYY=            615.5362  ZZZ=             10.1532  XYY=            -40.3317
  XXY=             33.5304  XXZ=             88.0020  XZZ=            -83.7652  YZZ=             82.5081
  YYZ=           -108.6450  XYZ=            102.4002
 Hexadecapole moment (field-independent basis, Debye-Ang**3):
 XXXX=         -44309.0398 YYYY=         -33193.6798 ZZZZ=         -15631.4940 XXXY=           -192.7188
 XXXZ=           1134.4201 YYYX=           -138.5348 YYYZ=            408.4453 ZZZX=           -637.1248
 ZZZY=           -433.1665 XXYY=         -12155.0066 XXZZ=          -9790.7635 YYZZ=          -7628.9328
 XXYZ=           -377.9356 YYXZ=           -119.6448 ZZXY=             95.3325
 N-N= 1.645527984538D+04 E-N=-4.182127665323D+04  KE= 3.805122165578D+03
 Leave Link  601 at Sat Apr  2 18:40:15 2022, MaxMem=  4294967296 cpu:             260.7 elap:               5.2
 (Enter /share/apps/g16/l9999.exe)
 1\1\GINC-COMPUTE-0-1\SP\RPBE1PBE\6-311++G(d,p)\C68H90N6O6S1\RVIANELLO\
 02-Apr-2022\0\\#p PBE1PBE/6-311++G(d,p) scrf=(CPCM,solvent=water,Read)
  scf=(XQC,Tight)\\optimisation\\0,1\C,0,0.109137,-0.133542,0.654421\C,
 0,1.384328,-0.630849,0.822889\H,0,1.991699,-0.799307,-0.068914\C,0,-0.
 21918,0.307334,-0.626346\H,0,0.532466,0.290421,-1.418346\H,0,-0.563828
 ,-0.010131,1.496703\N,0,-1.377913,0.838741,-0.939829\H,0,-2.147288,0.7
 41322,-0.276262\C,0,-1.636506,1.590594,-2.153293\C,0,-3.081046,1.50398
 3,-2.590942\C,0,-3.942378,0.413291,-2.514299\C,0,-3.505435,2.738688,-3
 .083596\C,0,-5.258289,0.577317,-2.955796\H,0,-3.603923,-0.532905,-2.09
 2161\H,0,-5.950617,-0.258755,-2.904788\C,0,-5.684784,1.804673,-3.47023
 7\H,0,-6.709718,1.916073,-3.810202\C,0,-4.811047,2.891858,-3.538819\H,
 0,-5.156147,3.849622,-3.918492\C,0,-2.397221,3.763772,-2.979539\H,0,-1
 .91888,3.913749,-3.955672\H,0,-2.757955,4.73841,-2.636044\C,0,-1.42395
 3,3.111859,-1.97676\H,0,-1.721388,3.372417,-0.952817\H,0,-0.378474,3.4
 04673,-2.112461\H,0,-0.96624,1.193333,-2.929036\C,0,-5.540428,-2.85936
 ,-1.222704\C,0,-4.977823,-4.162572,-0.652873\H,0,-5.738928,-4.670312,-
 0.045746\H,0,-4.659083,-4.850842,-1.44134\H,0,-4.115708,-3.962857,-0.0
 09225\C,0,-6.821598,-3.093724,-2.0319\H,0,-7.573936,-3.548929,-1.37214
 1\H,0,-7.234977,-2.122646,-2.337581\C,0,-6.624034,-3.966017,-3.26972\H
 ,0,-7.544886,-4.034372,-3.856287\H,0,-5.843324,-3.549484,-3.916334\H,0
 ,-6.326545,-4.983744,-3.000827\C,0,-5.313893,-3.98023,3.85029\C,0,-4.4
 66317,-3.145379,4.808273\H,0,-4.946596,-2.174689,4.97909\H,0,-4.405239
 ,-3.639725,5.783115\C,0,-3.035834,-2.92734,4.289965\H,0,-2.461129,-2.2
 90015,4.967972\H,0,-2.520623,-3.888048,4.210299\C,0,-3.055918,-2.30593
 8,2.91298\O,0,-2.843663,-2.982826,1.895016\N,0,-3.427653,-1.018268,2.8
 56028\H,0,-3.534918,-0.476483,3.701533\H,0,-3.495721,-0.52505,1.97046\
 C,0,-4.139077,7.015466,2.201058\C,0,-3.049039,6.398829,1.317966\H,0,-3
 .017459,6.922056,0.354437\H,0,-2.069093,6.540941,1.788021\C,0,-3.27559
 7,4.923107,1.091256\C,0,-4.237534,4.474032,0.180105\H,0,-4.798155,5.19
 7451,-0.408359\C,0,-4.493442,3.11666,0.004659\H,0,-5.229809,2.774966,-
 0.719816\C,0,-3.768367,2.191286,0.74979\O,0,-3.922878,0.832574,0.57994
 1\H,0,-4.53348,0.646617,-0.155819\C,0,-2.802487,2.608723,1.660457\H,0,
 -2.233408,1.873863,2.224261\C,0,-2.565354,3.969148,1.826177\H,0,-1.803
 848,4.28958,2.53333\C,0,0.046693,6.026381,-0.376269\C,0,1.20766,5.1644
 91,0.128995\H,0,1.404242,4.36985,-0.596279\H,0,2.116597,5.778115,0.173
 896\C,0,0.945304,4.545795,1.481141\C,0,0.753426,5.34505,2.614499\H,0,0
 .808789,6.427741,2.52093\C,0,0.501685,4.771915,3.858698\H,0,0.358227,5
 .407504,4.727614\C,0,0.439678,3.383721,3.991399\H,0,0.248902,2.936287,
 4.961955\C,0,0.636211,2.575374,2.873059\H,0,0.613897,1.491343,2.968044
 \C,0,0.88469,3.157919,1.62916\H,0,1.043787,2.521979,0.759374\C,0,6.530
 483,1.956704,-2.692492\C,0,6.780196,1.893506,-1.190998\H,0,5.830974,1.
 795411,-0.654829\H,0,7.283338,2.799248,-0.838686\S,0,7.810767,0.443476
 ,-0.790124\C,0,7.533015,0.33192,1.018105\H,0,7.893733,1.247422,1.49122
 4\H,0,8.184785,-0.484314,1.342227\C,0,6.098169,0.039764,1.38133\C,0,5.
 595436,-1.238823,1.103332\C,0,4.266944,-1.577979,1.361123\H,0,6.265997
 ,-1.961858,0.650905\C,0,5.27258,1.014827,1.955163\C,0,5.760551,2.40236
 8,2.296066\H,0,6.518872,2.379317,3.086307\H,0,6.206498,2.906304,1.4324
 89\H,0,4.930466,3.018982,2.649309\C,0,3.942684,0.66604,2.221328\H,0,3.
 256858,1.396742,2.643465\C,0,3.44251,-0.588808,1.928242\N,0,2.030866,-
 0.80431,2.060395\C,0,1.647605,-2.199341,2.019575\C,0,0.401473,-2.56799
 1,2.630797\O,0,-0.374599,-1.792457,3.193821\N,0,0.106314,-3.910605,2.4
 8361\H,0,-0.840729,-4.19247,2.715894\C,0,0.87421,-4.848361,1.783622\O,
 0,0.403312,-5.964984,1.591728\N,0,2.122719,-4.475641,1.360633\C,0,2.47
 5719,-3.208913,1.470748\N,0,3.7485,-2.847855,1.049118\C,0,4.652252,-3.
 854108,0.513239\C,0,4.913142,-1.814597,-2.706665\C,0,3.421986,-1.63923
 3,-2.402959\H,0,2.824759,-2.239047,-3.09861\H,0,3.208362,-2.034717,-1.
 39879\C,0,2.987616,-0.196873,-2.498651\C,0,3.40396,0.74584,-1.548113\H
 ,0,4.023205,0.420059,-0.710864\C,0,3.049944,2.08711,-1.648582\H,0,3.38
 4335,2.812887,-0.911678\C,0,2.276566,2.515234,-2.731908\O,0,1.987354,3
 .845538,-2.819919\H,0,1.492534,4.015947,-3.636152\C,0,1.83205,1.591795
 ,-3.677311\H,0,1.224315,1.924482,-4.516055\C,0,2.191821,0.250136,-3.55
 5272\H,0,1.852162,-0.459387,-4.305431\C,0,2.763441,-5.182822,-2.322763
 \C,0,1.559886,-4.843368,-3.206316\H,0,1.89541,-4.288617,-4.091084\H,0,
 1.120287,-5.776902,-3.581039\C,0,0.496534,-4.039959,-2.489535\C,0,-0.0
 22945,-2.860286,-3.026374\H,0,0.34735,-2.503517,-3.985685\C,0,-1.01819
 1,-2.13377,-2.373195\H,0,-1.421187,-1.225955,-2.814619\C,0,-1.514317,-
 2.580055,-1.145731\O,0,-2.469705,-1.846344,-0.513529\H,0,-2.64637,-2.2
 50826,0.37598\C,0,-1.018323,-3.770592,-0.602995\H,0,-1.415814,-4.13729
 2,0.338325\C,0,-0.026608,-4.48056,-1.268977\H,0,0.337197,-5.398384,-0.
 814581\H,0,5.928907,2.838444,-2.932276\H,0,5.984309,1.070868,-3.030615
 \H,0,7.470152,2.020903,-3.249321\H,0,5.086562,-3.500812,-0.427404\H,0,
 4.080455,-4.760553,0.336065\H,0,5.461295,-4.064526,1.221839\H,0,-0.887
 857,5.454688,-0.379169\H,0,0.242116,6.375704,-1.395282\H,0,-0.104595,6
 .905291,0.258963\H,0,-4.165372,6.523523,3.17824\H,0,-5.124786,6.89728,
 1.739895\H,0,-3.961384,8.083256,2.35818\C,0,-5.797162,-1.862749,-0.093
 24\H,0,-4.782501,-2.430632,-1.895927\H,0,-6.554415,-2.251645,0.599167\
 H,0,-6.170474,-0.904461,-0.479075\H,0,-4.882703,-1.683084,0.482004\H,0
 ,2.461449,-5.752652,-1.438531\H,0,3.250402,-4.270269,-1.966035\H,0,3.5
 0081,-5.773321,-2.875084\H,0,-6.304071,-4.174798,4.270933\H,0,-4.83430
 7,-4.94285,3.644217\H,0,-5.449296,-3.467414,2.891695\H,0,5.528585,-1.2
 83523,-1.970566\H,0,5.153368,-1.416391,-3.698146\H,0,5.195309,-2.87284
 6,-2.690468\\Version=ES64L-G16RevB.01\State=1-A\HF=-3820.2988621\RMSD=
 1.219e-09\Dipole=-1.5421424,7.2908482,-2.2018526\Quadrupole=14.9176632
 ,-30.6330127,15.7153495,-6.8938119,-0.5180763,-0.5819551\PG=C01 [X(C68
 H90N6O6S1)]\\@


 ERROR IS A HARDY PLANT... IT FLOURISHETH IN EVERY SOIL.
            MARTIN FARQUHAR TUPPER
 Job cpu time:       5 days  4 hours 29 minutes 15.7 seconds.
 Elapsed time:       0 days  1 hours 57 minutes 42.4 seconds.
 File lengths (MBytes):  RWF=   3672 Int=      0 D2E=      0 Chk=    337 Scr=      1
 Normal termination of Gaussian 16 at Sat Apr  2 18:40:16 2022.
